M 0.00000 0 (250.00, 250.00, 0.00), (400.00, 300.00), 50.00
M 0.00000 1 (200.00, 250.00, 0.00), (250.00, 100.00), 20.00
M 0.00000 2 (250.00, 250.00, 0.00), (175.00, 180.00), 5.00
M 0.00000 3 (250.00, 250.00, 0.00), (100.00, 100.00), 25.00
s 0.000000000 _0_ AGT  --- 0 tcp 40 [0 0 0 0] ------- [0:0 1:0 32 0] [0 0] 0 0
r 0.000000000 _0_ RTR  --- 0 tcp 40 [0 0 0 0] ------- [0:0 1:0 32 0] [0 0] 0 0
s 0.000000000 _2_ AGT  --- 1 tcp 40 [0 0 0 0] ------- [2:0 3:0 32 0] [0 0] 0 0
r 0.000000000 _2_ RTR  --- 1 tcp 40 [0 0 0 0] ------- [2:0 3:0 32 0] [0 0] 0 0
s 0.031538939 _0_ RTR  --- 2 message 32 [0 0 0 0] ------- [0:255 -1:255 32 0] 
r 0.032598945 _2_ RTR  --- 2 message 32 [0 ffffffff 0 800] ------- [0:255 -1:255 32 0] 
r 0.032598947 _3_ RTR  --- 2 message 32 [0 ffffffff 0 800] ------- [0:255 -1:255 32 0] 
r 0.032599110 _1_ RTR  --- 2 message 32 [0 ffffffff 0 800] ------- [0:255 -1:255 32 0] 
s 0.179336133 _1_ RTR  --- 3 message 32 [0 0 0 0] ------- [1:255 -1:255 32 0] 
r 0.180196286 _3_ RTR  --- 3 message 32 [0 ffffffff 1 800] ------- [1:255 -1:255 32 0] 
r 0.180196294 _2_ RTR  --- 3 message 32 [0 ffffffff 1 800] ------- [1:255 -1:255 32 0] 
r 0.180196326 _0_ RTR  --- 3 message 32 [0 ffffffff 1 800] ------- [1:255 -1:255 32 0] 
s 0.180196326 _0_ RTR  --- 0 tcp 80 [0 0 0 0] ------- [0:0 1:0 32 1] [0 0] 0 0
r 0.185283675 _1_ AGT  --- 0 tcp 80 [13a 1 0 800] ------- [0:0 1:0 32 1] [0 0] 1 0
s 0.185283675 _1_ AGT  --- 4 ack 40 [0 0 0 0] ------- [1:0 0:0 32 0] [0 0] 0 0
r 0.185283675 _1_ RTR  --- 4 ack 40 [0 0 0 0] ------- [1:0 0:0 32 0] [0 0] 0 0
s 0.185283675 _1_ RTR  --- 4 ack 60 [0 0 0 0] ------- [1:0 0:0 32 0] [0 0] 0 0
r 0.187748256 _0_ AGT  --- 4 ack 60 [13a 0 1 800] ------- [1:0 0:0 32 0] [0 0] 1 0
s 0.187748256 _0_ AGT  --- 5 tcp 1040 [0 0 0 0] ------- [0:0 1:0 32 0] [1 0] 0 0
r 0.187748256 _0_ RTR  --- 5 tcp 1040 [0 0 0 0] ------- [0:0 1:0 32 0] [1 0] 0 0
s 0.187748256 _0_ RTR  --- 5 tcp 1060 [0 0 0 0] ------- [0:0 1:0 32 1] [1 0] 0 0
s 0.187748256 _0_ AGT  --- 6 tcp 1040 [0 0 0 0] ------- [0:0 1:0 32 0] [2 0] 0 0
r 0.187748256 _0_ RTR  --- 6 tcp 1040 [0 0 0 0] ------- [0:0 1:0 32 0] [2 0] 0 0
s 0.187748256 _0_ RTR  --- 6 tcp 1060 [0 0 0 0] ------- [0:0 1:0 32 1] [2 0] 0 0
r 0.198052837 _1_ AGT  --- 5 tcp 1060 [13a 1 0 800] ------- [0:0 1:0 32 1] [1 0] 1 0
s 0.198052837 _1_ AGT  --- 7 ack 40 [0 0 0 0] ------- [1:0 0:0 32 0] [1 0] 0 0
r 0.198052837 _1_ RTR  --- 7 ack 40 [0 0 0 0] ------- [1:0 0:0 32 0] [1 0] 0 0
s 0.198052837 _1_ RTR  --- 7 ack 60 [0 0 0 0] ------- [1:0 0:0 32 0] [1 0] 0 0
r 0.208057618 _1_ AGT  --- 6 tcp 1060 [13a 1 0 800] ------- [0:0 1:0 32 1] [2 0] 1 0
s 0.208057618 _1_ AGT  --- 8 ack 40 [0 0 0 0] ------- [1:0 0:0 32 0] [2 0] 0 0
r 0.208057618 _1_ RTR  --- 8 ack 40 [0 0 0 0] ------- [1:0 0:0 32 0] [2 0] 0 0
s 0.208057618 _1_ RTR  --- 8 ack 60 [0 0 0 0] ------- [1:0 0:0 32 0] [2 0] 0 0
r 0.210242208 _0_ AGT  --- 7 ack 60 [13a 0 1 800] ------- [1:0 0:0 32 0] [1 0] 1 0
s 0.210242208 _0_ AGT  --- 9 tcp 1040 [0 0 0 0] ------- [0:0 1:0 32 0] [3 0] 0 0
r 0.210242208 _0_ RTR  --- 9 tcp 1040 [0 0 0 0] ------- [0:0 1:0 32 0] [3 0] 0 0
s 0.210242208 _0_ RTR  --- 9 tcp 1060 [0 0 0 0] ------- [0:0 1:0 32 1] [3 0] 0 0
s 0.210242208 _0_ AGT  --- 10 tcp 1040 [0 0 0 0] ------- [0:0 1:0 32 0] [4 0] 0 0
r 0.210242208 _0_ RTR  --- 10 tcp 1040 [0 0 0 0] ------- [0:0 1:0 32 0] [4 0] 0 0
s 0.210242208 _0_ RTR  --- 10 tcp 1060 [0 0 0 0] ------- [0:0 1:0 32 1] [4 0] 0 0
r 0.220266800 _1_ AGT  --- 9 tcp 1060 [13a 1 0 800] ------- [0:0 1:0 32 1] [3 0] 1 0
s 0.220266800 _1_ AGT  --- 11 ack 40 [0 0 0 0] ------- [1:0 0:0 32 0] [3 0] 0 0
r 0.220266800 _1_ RTR  --- 11 ack 40 [0 0 0 0] ------- [1:0 0:0 32 0] [3 0] 0 0
s 0.220266800 _1_ RTR  --- 11 ack 60 [0 0 0 0] ------- [1:0 0:0 32 0] [3 0] 0 0
r 0.230431594 _1_ AGT  --- 10 tcp 1060 [13a 1 0 800] ------- [0:0 1:0 32 1] [4 0] 1 0
s 0.230431594 _1_ AGT  --- 12 ack 40 [0 0 0 0] ------- [1:0 0:0 32 0] [4 0] 0 0
r 0.230431594 _1_ RTR  --- 12 ack 40 [0 0 0 0] ------- [1:0 0:0 32 0] [4 0] 0 0
s 0.230431594 _1_ RTR  --- 12 ack 60 [0 0 0 0] ------- [1:0 0:0 32 0] [4 0] 0 0
r 0.232636195 _0_ AGT  --- 8 ack 60 [13a 0 1 800] ------- [1:0 0:0 32 0] [2 0] 1 0
s 0.232636195 _0_ AGT  --- 13 tcp 1040 [0 0 0 0] ------- [0:0 1:0 32 0] [5 0] 0 0
r 0.232636195 _0_ RTR  --- 13 tcp 1040 [0 0 0 0] ------- [0:0 1:0 32 0] [5 0] 0 0
s 0.232636195 _0_ RTR  --- 13 tcp 1060 [0 0 0 0] ------- [0:0 1:0 32 1] [5 0] 0 0
s 0.232636195 _0_ AGT  --- 14 tcp 1040 [0 0 0 0] ------- [0:0 1:0 32 0] [6 0] 0 0
r 0.232636195 _0_ RTR  --- 14 tcp 1040 [0 0 0 0] ------- [0:0 1:0 32 0] [6 0] 0 0
s 0.232636195 _0_ RTR  --- 14 tcp 1060 [0 0 0 0] ------- [0:0 1:0 32 1] [6 0] 0 0
r 0.242980796 _1_ AGT  --- 13 tcp 1060 [13a 1 0 800] ------- [0:0 1:0 32 1] [5 0] 1 0
s 0.242980796 _1_ AGT  --- 15 ack 40 [0 0 0 0] ------- [1:0 0:0 32 0] [5 0] 0 0
r 0.242980796 _1_ RTR  --- 15 ack 40 [0 0 0 0] ------- [1:0 0:0 32 0] [5 0] 0 0
s 0.242980796 _1_ RTR  --- 15 ack 60 [0 0 0 0] ------- [1:0 0:0 32 0] [5 0] 0 0
r 0.245005402 _0_ AGT  --- 11 ack 60 [13a 0 1 800] ------- [1:0 0:0 32 0] [3 0] 1 0
s 0.245005402 _0_ AGT  --- 16 tcp 1040 [0 0 0 0] ------- [0:0 1:0 32 0] [7 0] 0 0
r 0.245005402 _0_ RTR  --- 16 tcp 1040 [0 0 0 0] ------- [0:0 1:0 32 0] [7 0] 0 0
s 0.245005402 _0_ RTR  --- 16 tcp 1060 [0 0 0 0] ------- [0:0 1:0 32 1] [7 0] 0 0
s 0.245005402 _0_ AGT  --- 17 tcp 1040 [0 0 0 0] ------- [0:0 1:0 32 0] [8 0] 0 0
r 0.245005402 _0_ RTR  --- 17 tcp 1040 [0 0 0 0] ------- [0:0 1:0 32 0] [8 0] 0 0
s 0.245005402 _0_ RTR  --- 17 tcp 1060 [0 0 0 0] ------- [0:0 1:0 32 1] [8 0] 0 0
r 0.247350212 _0_ AGT  --- 12 ack 60 [13a 0 1 800] ------- [1:0 0:0 32 0] [4 0] 1 0
s 0.247350212 _0_ AGT  --- 18 tcp 1040 [0 0 0 0] ------- [0:0 1:0 32 0] [9 0] 0 0
r 0.247350212 _0_ RTR  --- 18 tcp 1040 [0 0 0 0] ------- [0:0 1:0 32 0] [9 0] 0 0
s 0.247350212 _0_ RTR  --- 18 tcp 1060 [0 0 0 0] ------- [0:0 1:0 32 1] [9 0] 0 0
s 0.247350212 _0_ AGT  --- 19 tcp 1040 [0 0 0 0] ------- [0:0 1:0 32 0] [10 0] 0 0
r 0.247350212 _0_ RTR  --- 19 tcp 1040 [0 0 0 0] ------- [0:0 1:0 32 0] [10 0] 0 0
s 0.247350212 _0_ RTR  --- 19 tcp 1060 [0 0 0 0] ------- [0:0 1:0 32 1] [10 0] 0 0
r 0.249375023 _0_ AGT  --- 15 ack 60 [13a 0 1 800] ------- [1:0 0:0 32 0] [5 0] 1 0
s 0.249375023 _0_ AGT  --- 20 tcp 1040 [0 0 0 0] ------- [0:0 1:0 32 0] [11 0] 0 0
r 0.249375023 _0_ RTR  --- 20 tcp 1040 [0 0 0 0] ------- [0:0 1:0 32 0] [11 0] 0 0
s 0.249375023 _0_ RTR  --- 20 tcp 1060 [0 0 0 0] ------- [0:0 1:0 32 1] [11 0] 0 0
s 0.249375023 _0_ AGT  --- 21 tcp 1040 [0 0 0 0] ------- [0:0 1:0 32 0] [12 0] 0 0
r 0.249375023 _0_ RTR  --- 21 tcp 1040 [0 0 0 0] ------- [0:0 1:0 32 0] [12 0] 0 0
s 0.249375023 _0_ RTR  --- 21 tcp 1060 [0 0 0 0] ------- [0:0 1:0 32 1] [12 0] 0 0
r 0.259459632 _1_ AGT  --- 14 tcp 1060 [13a 1 0 800] ------- [0:0 1:0 32 1] [6 0] 1 0
s 0.259459632 _1_ AGT  --- 22 ack 40 [0 0 0 0] ------- [1:0 0:0 32 0] [6 0] 0 0
r 0.259459632 _1_ RTR  --- 22 ack 40 [0 0 0 0] ------- [1:0 0:0 32 0] [6 0] 0 0
s 0.259459632 _1_ RTR  --- 22 ack 60 [0 0 0 0] ------- [1:0 0:0 32 0] [6 0] 0 0
r 0.261644245 _0_ AGT  --- 22 ack 60 [13a 0 1 800] ------- [1:0 0:0 32 0] [6 0] 1 0
s 0.261644245 _0_ AGT  --- 23 tcp 1040 [0 0 0 0] ------- [0:0 1:0 32 0] [13 0] 0 0
r 0.261644245 _0_ RTR  --- 23 tcp 1040 [0 0 0 0] ------- [0:0 1:0 32 0] [13 0] 0 0
s 0.261644245 _0_ RTR  --- 23 tcp 1060 [0 0 0 0] ------- [0:0 1:0 32 1] [13 0] 0 0
s 0.261644245 _0_ AGT  --- 24 tcp 1040 [0 0 0 0] ------- [0:0 1:0 32 0] [14 0] 0 0
r 0.261644245 _0_ RTR  --- 24 tcp 1040 [0 0 0 0] ------- [0:0 1:0 32 0] [14 0] 0 0
s 0.261644245 _0_ RTR  --- 24 tcp 1060 [0 0 0 0] ------- [0:0 1:0 32 1] [14 0] 0 0
r 0.271788860 _1_ AGT  --- 16 tcp 1060 [13a 1 0 800] ------- [0:0 1:0 32 1] [7 0] 1 0
s 0.271788860 _1_ AGT  --- 25 ack 40 [0 0 0 0] ------- [1:0 0:0 32 0] [7 0] 0 0
r 0.271788860 _1_ RTR  --- 25 ack 40 [0 0 0 0] ------- [1:0 0:0 32 0] [7 0] 0 0
s 0.271788860 _1_ RTR  --- 25 ack 60 [0 0 0 0] ------- [1:0 0:0 32 0] [7 0] 0 0
r 0.273853479 _0_ AGT  --- 25 ack 60 [13a 0 1 800] ------- [1:0 0:0 32 0] [7 0] 1 0
s 0.273853479 _0_ AGT  --- 26 tcp 1040 [0 0 0 0] ------- [0:0 1:0 32 0] [15 0] 0 0
r 0.273853479 _0_ RTR  --- 26 tcp 1040 [0 0 0 0] ------- [0:0 1:0 32 0] [15 0] 0 0
s 0.273853479 _0_ RTR  --- 26 tcp 1060 [0 0 0 0] ------- [0:0 1:0 32 1] [15 0] 0 0
s 0.273853479 _0_ AGT  --- 27 tcp 1040 [0 0 0 0] ------- [0:0 1:0 32 0] [16 0] 0 0
r 0.273853479 _0_ RTR  --- 27 tcp 1040 [0 0 0 0] ------- [0:0 1:0 32 0] [16 0] 0 0
s 0.273853479 _0_ RTR  --- 27 tcp 1060 [0 0 0 0] ------- [0:0 1:0 32 1] [16 0] 0 0
r 0.284038100 _1_ AGT  --- 17 tcp 1060 [13a 1 0 800] ------- [0:0 1:0 32 1] [8 0] 1 0
s 0.284038100 _1_ AGT  --- 28 ack 40 [0 0 0 0] ------- [1:0 0:0 32 0] [8 0] 0 0
r 0.284038100 _1_ RTR  --- 28 ack 40 [0 0 0 0] ------- [1:0 0:0 32 0] [8 0] 0 0
s 0.284038100 _1_ RTR  --- 28 ack 60 [0 0 0 0] ------- [1:0 0:0 32 0] [8 0] 0 0
r 0.286122725 _0_ AGT  --- 28 ack 60 [13a 0 1 800] ------- [1:0 0:0 32 0] [8 0] 1 0
s 0.286122725 _0_ AGT  --- 29 tcp 1040 [0 0 0 0] ------- [0:0 1:0 32 0] [17 0] 0 0
r 0.286122725 _0_ RTR  --- 29 tcp 1040 [0 0 0 0] ------- [0:0 1:0 32 0] [17 0] 0 0
s 0.286122725 _0_ RTR  --- 29 tcp 1060 [0 0 0 0] ------- [0:0 1:0 32 1] [17 0] 0 0
s 0.286122725 _0_ AGT  --- 30 tcp 1040 [0 0 0 0] ------- [0:0 1:0 32 0] [18 0] 0 0
r 0.286122725 _0_ RTR  --- 30 tcp 1040 [0 0 0 0] ------- [0:0 1:0 32 0] [18 0] 0 0
s 0.286122725 _0_ RTR  --- 30 tcp 1060 [0 0 0 0] ------- [0:0 1:0 32 1] [18 0] 0 0
r 0.296527351 _1_ AGT  --- 18 tcp 1060 [13a 1 0 800] ------- [0:0 1:0 32 1] [9 0] 1 0
s 0.296527351 _1_ AGT  --- 31 ack 40 [0 0 0 0] ------- [1:0 0:0 32 0] [9 0] 0 0
r 0.296527351 _1_ RTR  --- 31 ack 40 [0 0 0 0] ------- [1:0 0:0 32 0] [9 0] 0 0
s 0.296527351 _1_ RTR  --- 31 ack 60 [0 0 0 0] ------- [1:0 0:0 32 0] [9 0] 0 0
r 0.298711982 _0_ AGT  --- 31 ack 60 [13a 0 1 800] ------- [1:0 0:0 32 0] [9 0] 1 0
s 0.298711982 _0_ AGT  --- 32 tcp 1040 [0 0 0 0] ------- [0:0 1:0 32 0] [19 0] 0 0
r 0.298711982 _0_ RTR  --- 32 tcp 1040 [0 0 0 0] ------- [0:0 1:0 32 0] [19 0] 0 0
s 0.298711982 _0_ RTR  --- 32 tcp 1060 [0 0 0 0] ------- [0:0 1:0 32 1] [19 0] 0 0
s 0.298711982 _0_ AGT  --- 33 tcp 1040 [0 0 0 0] ------- [0:0 1:0 32 0] [20 0] 0 0
r 0.298711982 _0_ RTR  --- 33 tcp 1040 [0 0 0 0] ------- [0:0 1:0 32 0] [20 0] 0 0
s 0.298711982 _0_ RTR  --- 33 tcp 1060 [0 0 0 0] ------- [0:0 1:0 32 1] [20 0] 0 0
r 0.309076614 _1_ AGT  --- 19 tcp 1060 [13a 1 0 800] ------- [0:0 1:0 32 1] [10 0] 1 0
s 0.309076614 _1_ AGT  --- 34 ack 40 [0 0 0 0] ------- [1:0 0:0 32 0] [10 0] 0 0
r 0.309076614 _1_ RTR  --- 34 ack 40 [0 0 0 0] ------- [1:0 0:0 32 0] [10 0] 0 0
s 0.309076614 _1_ RTR  --- 34 ack 60 [0 0 0 0] ------- [1:0 0:0 32 0] [10 0] 0 0
r 0.311181250 _0_ AGT  --- 34 ack 60 [13a 0 1 800] ------- [1:0 0:0 32 0] [10 0] 1 0
s 0.311181250 _0_ AGT  --- 35 tcp 1040 [0 0 0 0] ------- [0:0 1:0 32 0] [21 0] 0 0
r 0.311181250 _0_ RTR  --- 35 tcp 1040 [0 0 0 0] ------- [0:0 1:0 32 0] [21 0] 0 0
s 0.311181250 _0_ RTR  --- 35 tcp 1060 [0 0 0 0] ------- [0:0 1:0 32 1] [21 0] 0 0
s 0.311181250 _0_ AGT  --- 36 tcp 1040 [0 0 0 0] ------- [0:0 1:0 32 0] [22 0] 0 0
r 0.311181250 _0_ RTR  --- 36 tcp 1040 [0 0 0 0] ------- [0:0 1:0 32 0] [22 0] 0 0
s 0.311181250 _0_ RTR  --- 36 tcp 1060 [0 0 0 0] ------- [0:0 1:0 32 1] [22 0] 0 0
r 0.321385888 _1_ AGT  --- 20 tcp 1060 [13a 1 0 800] ------- [0:0 1:0 32 1] [11 0] 1 0
s 0.321385888 _1_ AGT  --- 37 ack 40 [0 0 0 0] ------- [1:0 0:0 32 0] [11 0] 0 0
r 0.321385888 _1_ RTR  --- 37 ack 40 [0 0 0 0] ------- [1:0 0:0 32 0] [11 0] 0 0
s 0.321385888 _1_ RTR  --- 37 ack 60 [0 0 0 0] ------- [1:0 0:0 32 0] [11 0] 0 0
r 0.332896745 _1_ AGT  --- 21 tcp 1060 [13a 1 0 800] ------- [0:0 1:0 32 1] [12 0] 1 0
s 0.332896745 _1_ AGT  --- 38 ack 40 [0 0 0 0] ------- [1:0 0:0 32 0] [12 0] 0 0
r 0.332896745 _1_ RTR  --- 38 ack 40 [0 0 0 0] ------- [1:0 0:0 32 0] [12 0] 0 0
s 0.332896745 _1_ RTR  --- 38 ack 60 [0 0 0 0] ------- [1:0 0:0 32 0] [12 0] 0 0
r 0.335341393 _0_ AGT  --- 37 ack 60 [13a 0 1 800] ------- [1:0 0:0 32 0] [11 0] 1 0
s 0.335341393 _0_ AGT  --- 39 tcp 1040 [0 0 0 0] ------- [0:0 1:0 32 0] [23 0] 0 0
r 0.335341393 _0_ RTR  --- 39 tcp 1040 [0 0 0 0] ------- [0:0 1:0 32 0] [23 0] 0 0
s 0.335341393 _0_ RTR  --- 39 tcp 1060 [0 0 0 0] ------- [0:0 1:0 32 1] [23 0] 0 0
s 0.335341393 _0_ AGT  --- 40 tcp 1040 [0 0 0 0] ------- [0:0 1:0 32 0] [24 0] 0 0
r 0.335341393 _0_ RTR  --- 40 tcp 1040 [0 0 0 0] ------- [0:0 1:0 32 0] [24 0] 0 0
s 0.335341393 _0_ RTR  --- 40 tcp 1060 [0 0 0 0] ------- [0:0 1:0 32 1] [24 0] 0 0
r 0.337326258 _0_ AGT  --- 38 ack 60 [13a 0 1 800] ------- [1:0 0:0 32 0] [12 0] 1 0
s 0.337326258 _0_ AGT  --- 41 tcp 1040 [0 0 0 0] ------- [0:0 1:0 32 0] [25 0] 0 0
r 0.337326258 _0_ RTR  --- 41 tcp 1040 [0 0 0 0] ------- [0:0 1:0 32 0] [25 0] 0 0
s 0.337326258 _0_ RTR  --- 41 tcp 1060 [0 0 0 0] ------- [0:0 1:0 32 1] [25 0] 0 0
s 0.337326258 _0_ AGT  --- 42 tcp 1040 [0 0 0 0] ------- [0:0 1:0 32 0] [26 0] 0 0
r 0.337326258 _0_ RTR  --- 42 tcp 1040 [0 0 0 0] ------- [0:0 1:0 32 0] [26 0] 0 0
s 0.337326258 _0_ RTR  --- 42 tcp 1060 [0 0 0 0] ------- [0:0 1:0 32 1] [26 0] 0 0
r 0.347330907 _1_ AGT  --- 23 tcp 1060 [13a 1 0 800] ------- [0:0 1:0 32 1] [13 0] 1 0
s 0.347330907 _1_ AGT  --- 43 ack 40 [0 0 0 0] ------- [1:0 0:0 32 0] [13 0] 0 0
r 0.347330907 _1_ RTR  --- 43 ack 40 [0 0 0 0] ------- [1:0 0:0 32 0] [13 0] 0 0
s 0.347330907 _1_ RTR  --- 43 ack 60 [0 0 0 0] ------- [1:0 0:0 32 0] [13 0] 0 0
r 0.349515562 _0_ AGT  --- 43 ack 60 [13a 0 1 800] ------- [1:0 0:0 32 0] [13 0] 1 0
s 0.349515562 _0_ AGT  --- 44 tcp 1040 [0 0 0 0] ------- [0:0 1:0 32 0] [27 0] 0 0
r 0.349515562 _0_ RTR  --- 44 tcp 1040 [0 0 0 0] ------- [0:0 1:0 32 0] [27 0] 0 0
s 0.349515562 _0_ RTR  --- 44 tcp 1060 [0 0 0 0] ------- [0:0 1:0 32 1] [27 0] 0 0
s 0.349515562 _0_ AGT  --- 45 tcp 1040 [0 0 0 0] ------- [0:0 1:0 32 0] [28 0] 0 0
r 0.349515562 _0_ RTR  --- 45 tcp 1040 [0 0 0 0] ------- [0:0 1:0 32 0] [28 0] 0 0
s 0.349515562 _0_ RTR  --- 45 tcp 1060 [0 0 0 0] ------- [0:0 1:0 32 1] [28 0] 0 0
r 0.359620217 _1_ AGT  --- 24 tcp 1060 [13a 1 0 800] ------- [0:0 1:0 32 1] [14 0] 1 0
s 0.359620217 _1_ AGT  --- 46 ack 40 [0 0 0 0] ------- [1:0 0:0 32 0] [14 0] 0 0
r 0.359620217 _1_ RTR  --- 46 ack 40 [0 0 0 0] ------- [1:0 0:0 32 0] [14 0] 0 0
s 0.359620217 _1_ RTR  --- 46 ack 60 [0 0 0 0] ------- [1:0 0:0 32 0] [14 0] 0 0
r 0.361644877 _0_ AGT  --- 46 ack 60 [13a 0 1 800] ------- [1:0 0:0 32 0] [14 0] 1 0
s 0.361644877 _0_ AGT  --- 47 tcp 1040 [0 0 0 0] ------- [0:0 1:0 32 0] [29 0] 0 0
r 0.361644877 _0_ RTR  --- 47 tcp 1040 [0 0 0 0] ------- [0:0 1:0 32 0] [29 0] 0 0
s 0.361644877 _0_ RTR  --- 47 tcp 1060 [0 0 0 0] ------- [0:0 1:0 32 1] [29 0] 0 0
s 0.361644877 _0_ AGT  --- 48 tcp 1040 [0 0 0 0] ------- [0:0 1:0 32 0] [30 0] 0 0
r 0.361644877 _0_ RTR  --- 48 tcp 1040 [0 0 0 0] ------- [0:0 1:0 32 0] [30 0] 0 0
s 0.361644877 _0_ RTR  --- 48 tcp 1060 [0 0 0 0] ------- [0:0 1:0 32 1] [30 0] 0 0
r 0.371809538 _1_ AGT  --- 26 tcp 1060 [13a 1 0 800] ------- [0:0 1:0 32 1] [15 0] 1 0
s 0.371809538 _1_ AGT  --- 49 ack 40 [0 0 0 0] ------- [1:0 0:0 32 0] [15 0] 0 0
r 0.371809538 _1_ RTR  --- 49 ack 40 [0 0 0 0] ------- [1:0 0:0 32 0] [15 0] 0 0
s 0.371809538 _1_ RTR  --- 49 ack 60 [0 0 0 0] ------- [1:0 0:0 32 0] [15 0] 0 0
r 0.381794426 _1_ AGT  --- 27 tcp 1060 [13a 1 0 800] ------- [0:0 1:0 32 1] [16 0] 1 0
s 0.381794426 _1_ AGT  --- 50 ack 40 [0 0 0 0] ------- [1:0 0:0 32 0] [16 0] 0 0
r 0.381794426 _1_ RTR  --- 50 ack 40 [0 0 0 0] ------- [1:0 0:0 32 0] [16 0] 0 0
s 0.381794426 _1_ RTR  --- 50 ack 60 [0 0 0 0] ------- [1:0 0:0 32 0] [16 0] 0 0
r 0.392019320 _1_ AGT  --- 29 tcp 1060 [13a 1 0 800] ------- [0:0 1:0 32 1] [17 0] 1 0
s 0.392019320 _1_ AGT  --- 51 ack 40 [0 0 0 0] ------- [1:0 0:0 32 0] [17 0] 0 0
r 0.392019320 _1_ RTR  --- 51 ack 40 [0 0 0 0] ------- [1:0 0:0 32 0] [17 0] 0 0
s 0.392019320 _1_ RTR  --- 51 ack 60 [0 0 0 0] ------- [1:0 0:0 32 0] [17 0] 0 0
r 0.394063996 _0_ AGT  --- 49 ack 60 [13a 0 1 800] ------- [1:0 0:0 32 0] [15 0] 1 0
s 0.394063996 _0_ AGT  --- 52 tcp 1040 [0 0 0 0] ------- [0:0 1:0 32 0] [31 0] 0 0
r 0.394063996 _0_ RTR  --- 52 tcp 1040 [0 0 0 0] ------- [0:0 1:0 32 0] [31 0] 0 0
s 0.394063996 _0_ RTR  --- 52 tcp 1060 [0 0 0 0] ------- [0:0 1:0 32 1] [31 0] 0 0
s 0.394063996 _0_ AGT  --- 53 tcp 1040 [0 0 0 0] ------- [0:0 1:0 32 0] [32 0] 0 0
r 0.394063996 _0_ RTR  --- 53 tcp 1040 [0 0 0 0] ------- [0:0 1:0 32 0] [32 0] 0 0
s 0.394063996 _0_ RTR  --- 53 tcp 1060 [0 0 0 0] ------- [0:0 1:0 32 1] [32 0] 0 0
r 0.404288672 _1_ AGT  --- 30 tcp 1060 [13a 1 0 800] ------- [0:0 1:0 32 1] [18 0] 1 0
s 0.404288672 _1_ AGT  --- 54 ack 40 [0 0 0 0] ------- [1:0 0:0 32 0] [18 0] 0 0
r 0.404288672 _1_ RTR  --- 54 ack 40 [0 0 0 0] ------- [1:0 0:0 32 0] [18 0] 0 0
s 0.404288672 _1_ RTR  --- 54 ack 60 [0 0 0 0] ------- [1:0 0:0 32 0] [18 0] 0 0
r 0.414293580 _1_ AGT  --- 32 tcp 1060 [13a 1 0 800] ------- [0:0 1:0 32 1] [19 0] 1 0
s 0.414293580 _1_ AGT  --- 55 ack 40 [0 0 0 0] ------- [1:0 0:0 32 0] [19 0] 0 0
r 0.414293580 _1_ RTR  --- 55 ack 40 [0 0 0 0] ------- [1:0 0:0 32 0] [19 0] 0 0
s 0.414293580 _1_ RTR  --- 55 ack 60 [0 0 0 0] ------- [1:0 0:0 32 0] [19 0] 0 0
r 0.416298266 _0_ AGT  --- 50 ack 60 [13a 0 1 800] ------- [1:0 0:0 32 0] [16 0] 1 0
s 0.416298266 _0_ AGT  --- 56 tcp 1040 [0 0 0 0] ------- [0:0 1:0 32 0] [33 0] 0 0
r 0.416298266 _0_ RTR  --- 56 tcp 1040 [0 0 0 0] ------- [0:0 1:0 32 0] [33 0] 0 0
s 0.416298266 _0_ RTR  --- 56 tcp 1060 [0 0 0 0] ------- [0:0 1:0 32 1] [33 0] 0 0
s 0.416298266 _0_ AGT  --- 57 tcp 1040 [0 0 0 0] ------- [0:0 1:0 32 0] [34 0] 0 0
r 0.416298266 _0_ RTR  --- 57 tcp 1040 [0 0 0 0] ------- [0:0 1:0 32 0] [34 0] 0 0
s 0.416298266 _0_ RTR  --- 57 tcp 1060 [0 0 0 0] ------- [0:0 1:0 32 1] [34 0] 0 0
r 0.418523182 _0_ AGT  --- 51 ack 60 [13a 0 1 800] ------- [1:0 0:0 32 0] [17 0] 1 0
s 0.418523182 _0_ AGT  --- 58 tcp 1040 [0 0 0 0] ------- [0:0 1:0 32 0] [35 0] 0 0
r 0.418523182 _0_ RTR  --- 58 tcp 1040 [0 0 0 0] ------- [0:0 1:0 32 0] [35 0] 0 0
s 0.418523182 _0_ RTR  --- 58 tcp 1060 [0 0 0 0] ------- [0:0 1:0 32 1] [35 0] 0 0
s 0.418523182 _0_ AGT  --- 59 tcp 1040 [0 0 0 0] ------- [0:0 1:0 32 0] [36 0] 0 0
r 0.418523182 _0_ RTR  --- 59 tcp 1040 [0 0 0 0] ------- [0:0 1:0 32 0] [36 0] 0 0
s 0.418523182 _0_ RTR  --- 59 tcp 1060 [0 0 0 0] ------- [0:0 1:0 32 1] [36 0] 0 0
r 0.420628099 _0_ AGT  --- 54 ack 60 [13a 0 1 800] ------- [1:0 0:0 32 0] [18 0] 1 0
s 0.420628099 _0_ AGT  --- 60 tcp 1040 [0 0 0 0] ------- [0:0 1:0 32 0] [37 0] 0 0
r 0.420628099 _0_ RTR  --- 60 tcp 1040 [0 0 0 0] ------- [0:0 1:0 32 0] [37 0] 0 0
s 0.420628099 _0_ RTR  --- 60 tcp 1060 [0 0 0 0] ------- [0:0 1:0 32 1] [37 0] 0 0
s 0.420628099 _0_ AGT  --- 61 tcp 1040 [0 0 0 0] ------- [0:0 1:0 32 0] [38 0] 0 0
r 0.420628099 _0_ RTR  --- 61 tcp 1040 [0 0 0 0] ------- [0:0 1:0 32 0] [38 0] 0 0
s 0.420628099 _0_ RTR  --- 61 tcp 1060 [0 0 0 0] ------- [0:0 1:0 32 1] [38 0] 0 0
r 0.430712788 _1_ AGT  --- 33 tcp 1060 [13a 1 0 800] ------- [0:0 1:0 32 1] [20 0] 1 0
s 0.430712788 _1_ AGT  --- 62 ack 40 [0 0 0 0] ------- [1:0 0:0 32 0] [20 0] 0 0
r 0.430712788 _1_ RTR  --- 62 ack 40 [0 0 0 0] ------- [1:0 0:0 32 0] [20 0] 0 0
s 0.430712788 _1_ RTR  --- 62 ack 60 [0 0 0 0] ------- [1:0 0:0 32 0] [20 0] 0 0
r 0.440737713 _1_ AGT  --- 35 tcp 1060 [13a 1 0 800] ------- [0:0 1:0 32 1] [21 0] 1 0
s 0.440737713 _1_ AGT  --- 63 ack 40 [0 0 0 0] ------- [1:0 0:0 32 0] [21 0] 0 0
r 0.440737713 _1_ RTR  --- 63 ack 40 [0 0 0 0] ------- [1:0 0:0 32 0] [21 0] 0 0
s 0.440737713 _1_ RTR  --- 63 ack 60 [0 0 0 0] ------- [1:0 0:0 32 0] [21 0] 0 0
r 0.442882412 _0_ AGT  --- 55 ack 60 [13a 0 1 800] ------- [1:0 0:0 32 0] [19 0] 1 0
s 0.442882412 _0_ AGT  --- 64 tcp 1040 [0 0 0 0] ------- [0:0 1:0 32 0] [39 0] 0 0
r 0.442882412 _0_ RTR  --- 64 tcp 1040 [0 0 0 0] ------- [0:0 1:0 32 0] [39 0] 0 0
s 0.442882412 _0_ RTR  --- 64 tcp 1060 [0 0 0 0] ------- [0:0 1:0 32 1] [39 0] 0 0
r 0.444987345 _0_ AGT  --- 62 ack 60 [13a 0 1 800] ------- [1:0 0:0 32 0] [20 0] 1 0
s 0.444987345 _0_ AGT  --- 65 tcp 1040 [0 0 0 0] ------- [0:0 1:0 32 0] [40 0] 0 0
r 0.444987345 _0_ RTR  --- 65 tcp 1040 [0 0 0 0] ------- [0:0 1:0 32 0] [40 0] 0 0
s 0.444987345 _0_ RTR  --- 65 tcp 1060 [0 0 0 0] ------- [0:0 1:0 32 1] [40 0] 0 0
r 0.455152045 _1_ AGT  --- 36 tcp 1060 [13a 1 0 800] ------- [0:0 1:0 32 1] [22 0] 1 0
s 0.455152045 _1_ AGT  --- 66 ack 40 [0 0 0 0] ------- [1:0 0:0 32 0] [22 0] 0 0
r 0.455152045 _1_ RTR  --- 66 ack 40 [0 0 0 0] ------- [1:0 0:0 32 0] [22 0] 0 0
s 0.455152045 _1_ RTR  --- 66 ack 60 [0 0 0 0] ------- [1:0 0:0 32 0] [22 0] 0 0
r 0.457156751 _0_ AGT  --- 63 ack 60 [13a 0 1 800] ------- [1:0 0:0 32 0] [21 0] 1 0
s 0.457156751 _0_ AGT  --- 67 tcp 1040 [0 0 0 0] ------- [0:0 1:0 32 0] [41 0] 0 0
r 0.457156751 _0_ RTR  --- 67 tcp 1040 [0 0 0 0] ------- [0:0 1:0 32 0] [41 0] 0 0
s 0.457156751 _0_ RTR  --- 67 tcp 1060 [0 0 0 0] ------- [0:0 1:0 32 1] [41 0] 0 0
r 0.468067928 _1_ AGT  --- 39 tcp 1060 [13a 1 0 800] ------- [0:0 1:0 32 1] [23 0] 1 0
s 0.468067928 _1_ AGT  --- 68 ack 40 [0 0 0 0] ------- [1:0 0:0 32 0] [23 0] 0 0
r 0.468067928 _1_ RTR  --- 68 ack 40 [0 0 0 0] ------- [1:0 0:0 32 0] [23 0] 0 0
s 0.468067928 _1_ RTR  --- 68 ack 60 [0 0 0 0] ------- [1:0 0:0 32 0] [23 0] 0 0
r 0.478112877 _1_ AGT  --- 40 tcp 1060 [13a 1 0 800] ------- [0:0 1:0 32 1] [24 0] 1 0
s 0.478112877 _1_ AGT  --- 69 ack 40 [0 0 0 0] ------- [1:0 0:0 32 0] [24 0] 0 0
r 0.478112877 _1_ RTR  --- 69 ack 40 [0 0 0 0] ------- [1:0 0:0 32 0] [24 0] 0 0
s 0.478112877 _1_ RTR  --- 69 ack 60 [0 0 0 0] ------- [1:0 0:0 32 0] [24 0] 0 0
r 0.480317594 _0_ AGT  --- 66 ack 60 [13a 0 1 800] ------- [1:0 0:0 32 0] [22 0] 1 0
s 0.480317594 _0_ AGT  --- 70 tcp 1040 [0 0 0 0] ------- [0:0 1:0 32 0] [42 0] 0 0
r 0.480317594 _0_ RTR  --- 70 tcp 1040 [0 0 0 0] ------- [0:0 1:0 32 0] [42 0] 0 0
s 0.480317594 _0_ RTR  --- 70 tcp 1060 [0 0 0 0] ------- [0:0 1:0 32 1] [42 0] 0 0
r 0.490422311 _1_ AGT  --- 41 tcp 1060 [13a 1 0 800] ------- [0:0 1:0 32 1] [25 0] 1 0
s 0.490422311 _1_ AGT  --- 71 ack 40 [0 0 0 0] ------- [1:0 0:0 32 0] [25 0] 0 0
r 0.490422311 _1_ RTR  --- 71 ack 40 [0 0 0 0] ------- [1:0 0:0 32 0] [25 0] 0 0
s 0.490422311 _1_ RTR  --- 71 ack 60 [0 0 0 0] ------- [1:0 0:0 32 0] [25 0] 0 0
r 0.500527274 _1_ AGT  --- 42 tcp 1060 [13a 1 0 800] ------- [0:0 1:0 32 1] [26 0] 1 0
s 0.500527274 _1_ AGT  --- 72 ack 40 [0 0 0 0] ------- [1:0 0:0 32 0] [26 0] 0 0
r 0.500527274 _1_ RTR  --- 72 ack 40 [0 0 0 0] ------- [1:0 0:0 32 0] [26 0] 0 0
s 0.500527274 _1_ RTR  --- 72 ack 60 [0 0 0 0] ------- [1:0 0:0 32 0] [26 0] 0 0
r 0.510572244 _1_ AGT  --- 44 tcp 1060 [13a 1 0 800] ------- [0:0 1:0 32 1] [27 0] 1 0
s 0.510572244 _1_ AGT  --- 73 ack 40 [0 0 0 0] ------- [1:0 0:0 32 0] [27 0] 0 0
r 0.510572244 _1_ RTR  --- 73 ack 40 [0 0 0 0] ------- [1:0 0:0 32 0] [27 0] 0 0
s 0.510572244 _1_ RTR  --- 73 ack 60 [0 0 0 0] ------- [1:0 0:0 32 0] [27 0] 0 0
r 0.512856976 _0_ AGT  --- 68 ack 60 [13a 0 1 800] ------- [1:0 0:0 32 0] [23 0] 1 0
s 0.512856976 _0_ AGT  --- 74 tcp 1040 [0 0 0 0] ------- [0:0 1:0 32 0] [43 0] 0 0
r 0.512856976 _0_ RTR  --- 74 tcp 1040 [0 0 0 0] ------- [0:0 1:0 32 0] [43 0] 0 0
s 0.512856976 _0_ RTR  --- 74 tcp 1060 [0 0 0 0] ------- [0:0 1:0 32 1] [43 0] 0 0
r 0.514961954 _0_ AGT  --- 69 ack 60 [13a 0 1 800] ------- [1:0 0:0 32 0] [24 0] 1 0
s 0.514961954 _0_ AGT  --- 75 tcp 1040 [0 0 0 0] ------- [0:0 1:0 32 0] [44 0] 0 0
r 0.514961954 _0_ RTR  --- 75 tcp 1040 [0 0 0 0] ------- [0:0 1:0 32 0] [44 0] 0 0
s 0.514961954 _0_ RTR  --- 75 tcp 1060 [0 0 0 0] ------- [0:0 1:0 32 1] [44 0] 0 0
r 0.525106688 _1_ AGT  --- 45 tcp 1060 [13a 1 0 800] ------- [0:0 1:0 32 1] [28 0] 1 0
s 0.525106688 _1_ AGT  --- 76 ack 40 [0 0 0 0] ------- [1:0 0:0 32 0] [28 0] 0 0
r 0.525106688 _1_ RTR  --- 76 ack 40 [0 0 0 0] ------- [1:0 0:0 32 0] [28 0] 0 0
s 0.525106688 _1_ RTR  --- 76 ack 60 [0 0 0 0] ------- [1:0 0:0 32 0] [28 0] 0 0
r 0.537137675 _1_ AGT  --- 47 tcp 1060 [13a 1 0 800] ------- [0:0 1:0 32 1] [29 0] 1 0
s 0.537137675 _1_ AGT  --- 77 ack 40 [0 0 0 0] ------- [1:0 0:0 32 0] [29 0] 0 0
r 0.537137675 _1_ RTR  --- 77 ack 40 [0 0 0 0] ------- [1:0 0:0 32 0] [29 0] 0 0
s 0.537137675 _1_ RTR  --- 77 ack 60 [0 0 0 0] ------- [1:0 0:0 32 0] [29 0] 0 0
r 0.547422668 _1_ AGT  --- 48 tcp 1060 [13a 1 0 800] ------- [0:0 1:0 32 1] [30 0] 1 0
s 0.547422668 _1_ AGT  --- 78 ack 40 [0 0 0 0] ------- [1:0 0:0 32 0] [30 0] 0 0
r 0.547422668 _1_ RTR  --- 78 ack 40 [0 0 0 0] ------- [1:0 0:0 32 0] [30 0] 0 0
s 0.547422668 _1_ RTR  --- 78 ack 60 [0 0 0 0] ------- [1:0 0:0 32 0] [30 0] 0 0
r 0.549487418 _0_ AGT  --- 71 ack 60 [13a 0 1 800] ------- [1:0 0:0 32 0] [25 0] 1 0
s 0.549487418 _0_ AGT  --- 79 tcp 1040 [0 0 0 0] ------- [0:0 1:0 32 0] [45 0] 0 0
r 0.549487418 _0_ RTR  --- 79 tcp 1040 [0 0 0 0] ------- [0:0 1:0 32 0] [45 0] 0 0
s 0.549487418 _0_ RTR  --- 79 tcp 1060 [0 0 0 0] ------- [0:0 1:0 32 1] [45 0] 0 0
r 0.559692169 _1_ AGT  --- 52 tcp 1060 [13a 1 0 800] ------- [0:0 1:0 32 1] [31 0] 1 0
s 0.559692169 _1_ AGT  --- 80 ack 40 [0 0 0 0] ------- [1:0 0:0 32 0] [31 0] 0 0
r 0.559692169 _1_ RTR  --- 80 ack 40 [0 0 0 0] ------- [1:0 0:0 32 0] [31 0] 0 0
s 0.559692169 _1_ RTR  --- 80 ack 60 [0 0 0 0] ------- [1:0 0:0 32 0] [31 0] 0 0
r 0.569717177 _1_ AGT  --- 53 tcp 1060 [13a 1 0 800] ------- [0:0 1:0 32 1] [32 0] 1 0
s 0.569717177 _1_ AGT  --- 81 ack 40 [0 0 0 0] ------- [1:0 0:0 32 0] [32 0] 0 0
r 0.569717177 _1_ RTR  --- 81 ack 40 [0 0 0 0] ------- [1:0 0:0 32 0] [32 0] 0 0
s 0.569717177 _1_ RTR  --- 81 ack 60 [0 0 0 0] ------- [1:0 0:0 32 0] [32 0] 0 0
r 0.571781938 _0_ AGT  --- 72 ack 60 [13a 0 1 800] ------- [1:0 0:0 32 0] [26 0] 1 0
s 0.571781938 _0_ AGT  --- 82 tcp 1040 [0 0 0 0] ------- [0:0 1:0 32 0] [46 0] 0 0
r 0.571781938 _0_ RTR  --- 82 tcp 1040 [0 0 0 0] ------- [0:0 1:0 32 0] [46 0] 0 0
s 0.571781938 _0_ RTR  --- 82 tcp 1060 [0 0 0 0] ------- [0:0 1:0 32 1] [46 0] 0 0
r 0.573986954 _0_ AGT  --- 73 ack 60 [13a 0 1 800] ------- [1:0 0:0 32 0] [27 0] 1 0
s 0.573986954 _0_ AGT  --- 83 tcp 1040 [0 0 0 0] ------- [0:0 1:0 32 0] [47 0] 0 0
r 0.573986954 _0_ RTR  --- 83 tcp 1040 [0 0 0 0] ------- [0:0 1:0 32 0] [47 0] 0 0
s 0.573986954 _0_ RTR  --- 83 tcp 1060 [0 0 0 0] ------- [0:0 1:0 32 1] [47 0] 0 0
r 0.576151971 _0_ AGT  --- 76 ack 60 [13a 0 1 800] ------- [1:0 0:0 32 0] [28 0] 1 0
s 0.576151971 _0_ AGT  --- 84 tcp 1040 [0 0 0 0] ------- [0:0 1:0 32 0] [48 0] 0 0
r 0.576151971 _0_ RTR  --- 84 tcp 1040 [0 0 0 0] ------- [0:0 1:0 32 0] [48 0] 0 0
s 0.576151971 _0_ RTR  --- 84 tcp 1060 [0 0 0 0] ------- [0:0 1:0 32 1] [48 0] 0 0
r 0.586236735 _1_ AGT  --- 56 tcp 1060 [13a 1 0 800] ------- [0:0 1:0 32 1] [33 0] 1 0
s 0.586236735 _1_ AGT  --- 85 ack 40 [0 0 0 0] ------- [1:0 0:0 32 0] [33 0] 0 0
r 0.586236735 _1_ RTR  --- 85 ack 40 [0 0 0 0] ------- [1:0 0:0 32 0] [33 0] 0 0
s 0.586236735 _1_ RTR  --- 85 ack 60 [0 0 0 0] ------- [1:0 0:0 32 0] [33 0] 0 0
r 0.588281504 _0_ AGT  --- 77 ack 60 [13a 0 1 800] ------- [1:0 0:0 32 0] [29 0] 1 0
s 0.588281504 _0_ AGT  --- 86 tcp 1040 [0 0 0 0] ------- [0:0 1:0 32 0] [49 0] 0 0
r 0.588281504 _0_ RTR  --- 86 tcp 1040 [0 0 0 0] ------- [0:0 1:0 32 0] [49 0] 0 0
s 0.588281504 _0_ RTR  --- 86 tcp 1060 [0 0 0 0] ------- [0:0 1:0 32 1] [49 0] 0 0
r 0.598646274 _1_ AGT  --- 57 tcp 1060 [13a 1 0 800] ------- [0:0 1:0 32 1] [34 0] 1 0
s 0.598646274 _1_ AGT  --- 87 ack 40 [0 0 0 0] ------- [1:0 0:0 32 0] [34 0] 0 0
r 0.598646274 _1_ RTR  --- 87 ack 40 [0 0 0 0] ------- [1:0 0:0 32 0] [34 0] 0 0
s 0.598646274 _1_ RTR  --- 87 ack 60 [0 0 0 0] ------- [1:0 0:0 32 0] [34 0] 0 0
r 0.600651049 _0_ AGT  --- 78 ack 60 [13a 0 1 800] ------- [1:0 0:0 32 0] [30 0] 1 0
s 0.600651049 _0_ AGT  --- 88 tcp 1040 [0 0 0 0] ------- [0:0 1:0 32 0] [50 0] 0 0
r 0.600651049 _0_ RTR  --- 88 tcp 1040 [0 0 0 0] ------- [0:0 1:0 32 0] [50 0] 0 0
s 0.600651049 _0_ RTR  --- 88 tcp 1060 [0 0 0 0] ------- [0:0 1:0 32 1] [50 0] 0 0
r 0.610735825 _1_ AGT  --- 58 tcp 1060 [13a 1 0 800] ------- [0:0 1:0 32 1] [35 0] 1 0
s 0.610735825 _1_ AGT  --- 89 ack 40 [0 0 0 0] ------- [1:0 0:0 32 0] [35 0] 0 0
r 0.610735825 _1_ RTR  --- 89 ack 40 [0 0 0 0] ------- [1:0 0:0 32 0] [35 0] 0 0
s 0.610735825 _1_ RTR  --- 89 ack 60 [0 0 0 0] ------- [1:0 0:0 32 0] [35 0] 0 0
r 0.612780606 _0_ AGT  --- 80 ack 60 [13a 0 1 800] ------- [1:0 0:0 32 0] [31 0] 1 0
s 0.612780606 _0_ AGT  --- 90 tcp 1040 [0 0 0 0] ------- [0:0 1:0 32 0] [51 0] 0 0
r 0.612780606 _0_ RTR  --- 90 tcp 1040 [0 0 0 0] ------- [0:0 1:0 32 0] [51 0] 0 0
s 0.612780606 _0_ RTR  --- 90 tcp 1060 [0 0 0 0] ------- [0:0 1:0 32 1] [51 0] 0 0
r 0.614765648 _0_ AGT  --- 81 ack 60 [13a 0 1 800] ------- [1:0 0:0 32 0] [32 0] 1 0
s 0.614765648 _0_ AGT  --- 91 tcp 1040 [0 0 0 0] ------- [0:0 1:0 32 0] [52 0] 0 0
r 0.614765648 _0_ RTR  --- 91 tcp 1040 [0 0 0 0] ------- [0:0 1:0 32 0] [52 0] 0 0
s 0.614765648 _0_ RTR  --- 91 tcp 1060 [0 0 0 0] ------- [0:0 1:0 32 1] [52 0] 0 0
r 0.616890692 _0_ AGT  --- 85 ack 60 [13a 0 1 800] ------- [1:0 0:0 32 0] [33 0] 1 0
s 0.616890692 _0_ AGT  --- 92 tcp 1040 [0 0 0 0] ------- [0:0 1:0 32 0] [53 0] 0 0
r 0.616890692 _0_ RTR  --- 92 tcp 1040 [0 0 0 0] ------- [0:0 1:0 32 0] [53 0] 0 0
s 0.616890692 _0_ RTR  --- 92 tcp 1060 [0 0 0 0] ------- [0:0 1:0 32 1] [53 0] 0 0
r 0.626895476 _1_ AGT  --- 59 tcp 1060 [13a 1 0 800] ------- [0:0 1:0 32 1] [36 0] 1 0
s 0.626895476 _1_ AGT  --- 93 ack 40 [0 0 0 0] ------- [1:0 0:0 32 0] [36 0] 0 0
r 0.626895476 _1_ RTR  --- 93 ack 40 [0 0 0 0] ------- [1:0 0:0 32 0] [36 0] 0 0
s 0.626895476 _1_ RTR  --- 93 ack 60 [0 0 0 0] ------- [1:0 0:0 32 0] [36 0] 0 0
r 0.637200527 _1_ AGT  --- 60 tcp 1060 [13a 1 0 800] ------- [0:0 1:0 32 1] [37 0] 1 0
s 0.637200527 _1_ AGT  --- 94 ack 40 [0 0 0 0] ------- [1:0 0:0 32 0] [37 0] 0 0
r 0.637200527 _1_ RTR  --- 94 ack 40 [0 0 0 0] ------- [1:0 0:0 32 0] [37 0] 0 0
s 0.637200527 _1_ RTR  --- 94 ack 60 [0 0 0 0] ------- [1:0 0:0 32 0] [37 0] 0 0
r 0.639205321 _0_ AGT  --- 87 ack 60 [13a 0 1 800] ------- [1:0 0:0 32 0] [34 0] 1 0