V -t * -v 1.0a5 -a 0
A -t * -n 1 -p 0 -o 0x7fffffff -c 30 -a 1
A -t * -h 1 -m 1073741823 -s 0
n -t * -a 0 -s 0 -S UP -v circle -c black -i black
n -t * -a 1 -s 1 -S UP -v circle -c black -i black
n -t * -a 2 -s 2 -S UP -v circle -c black -i black
n -t * -a 3 -s 3 -S UP -v circle -c black -i black
l -t * -s 0 -d 2 -S UP -r 10000000 -D 0.001 -c black
l -t * -s 2 -d 3 -S UP -r 10000000 -D 0.001 -c black
l -t * -s 2 -d 1 -S UP -r 10000000 -D 0.001 -c black
+ -t 0 -s 0 -d 2 -p tcp -e 40 -c 0 -i 0 -a 0 -x {0.0 3.0 0 ------- null}
- -t 0 -s 0 -d 2 -p tcp -e 40 -c 0 -i 0 -a 0 -x {0.0 3.0 0 ------- null}
h -t 0 -s 0 -d 2 -p tcp -e 40 -c 0 -i 0 -a 0 -x {0.0 3.0 -1 ------- null}
r -t 0.001032 -s 0 -d 2 -p tcp -e 40 -c 0 -i 0 -a 0 -x {0.0 3.0 0 ------- null}
+ -t 0.001032 -s 2 -d 3 -p tcp -e 40 -c 0 -i 0 -a 0 -x {0.0 3.0 0 ------- null}
- -t 0.001032 -s 2 -d 3 -p tcp -e 40 -c 0 -i 0 -a 0 -x {0.0 3.0 0 ------- null}
h -t 0.001032 -s 2 -d 3 -p tcp -e 40 -c 0 -i 0 -a 0 -x {0.0 3.0 -1 ------- null}
r -t 0.002064 -s 2 -d 3 -p tcp -e 40 -c 0 -i 0 -a 0 -x {0.0 3.0 0 ------- null}
+ -t 0.002064 -s 3 -d 2 -p ack -e 40 -c 0 -i 1 -a 0 -x {3.0 0.0 0 ------- null}
- -t 0.002064 -s 3 -d 2 -p ack -e 40 -c 0 -i 1 -a 0 -x {3.0 0.0 0 ------- null}
h -t 0.002064 -s 3 -d 2 -p ack -e 40 -c 0 -i 1 -a 0 -x {3.0 0.0 -1 ------- null}
r -t 0.003096 -s 3 -d 2 -p ack -e 40 -c 0 -i 1 -a 0 -x {3.0 0.0 0 ------- null}
+ -t 0.003096 -s 2 -d 0 -p ack -e 40 -c 0 -i 1 -a 0 -x {3.0 0.0 0 ------- null}
- -t 0.003096 -s 2 -d 0 -p ack -e 40 -c 0 -i 1 -a 0 -x {3.0 0.0 0 ------- null}
h -t 0.003096 -s 2 -d 0 -p ack -e 40 -c 0 -i 1 -a 0 -x {3.0 0.0 -1 ------- null}
r -t 0.004128 -s 2 -d 0 -p ack -e 40 -c 0 -i 1 -a 0 -x {3.0 0.0 0 ------- null}
+ -t 0.004128 -s 0 -d 2 -p tcp -e 1040 -c 0 -i 2 -a 0 -x {0.0 3.0 1 ------- null}
- -t 0.004128 -s 0 -d 2 -p tcp -e 1040 -c 0 -i 2 -a 0 -x {0.0 3.0 1 ------- null}
h -t 0.004128 -s 0 -d 2 -p tcp -e 1040 -c 0 -i 2 -a 0 -x {0.0 3.0 -1 ------- null}
+ -t 0.004128 -s 0 -d 2 -p tcp -e 1040 -c 0 -i 3 -a 0 -x {0.0 3.0 2 ------- null}
- -t 0.00496 -s 0 -d 2 -p tcp -e 1040 -c 0 -i 3 -a 0 -x {0.0 3.0 2 ------- null}
h -t 0.00496 -s 0 -d 2 -p tcp -e 1040 -c 0 -i 3 -a 0 -x {0.0 3.0 -1 ------- null}
r -t 0.00596 -s 0 -d 2 -p tcp -e 1040 -c 0 -i 2 -a 0 -x {0.0 3.0 1 ------- null}
+ -t 0.00596 -s 2 -d 3 -p tcp -e 1040 -c 0 -i 2 -a 0 -x {0.0 3.0 1 ------- null}
- -t 0.00596 -s 2 -d 3 -p tcp -e 1040 -c 0 -i 2 -a 0 -x {0.0 3.0 1 ------- null}
h -t 0.00596 -s 2 -d 3 -p tcp -e 1040 -c 0 -i 2 -a 0 -x {0.0 3.0 -1 ------- null}
r -t 0.006792 -s 0 -d 2 -p tcp -e 1040 -c 0 -i 3 -a 0 -x {0.0 3.0 2 ------- null}
+ -t 0.006792 -s 2 -d 3 -p tcp -e 1040 -c 0 -i 3 -a 0 -x {0.0 3.0 2 ------- null}
- -t 0.006792 -s 2 -d 3 -p tcp -e 1040 -c 0 -i 3 -a 0 -x {0.0 3.0 2 ------- null}
h -t 0.006792 -s 2 -d 3 -p tcp -e 1040 -c 0 -i 3 -a 0 -x {0.0 3.0 -1 ------- null}
r -t 0.007792 -s 2 -d 3 -p tcp -e 1040 -c 0 -i 2 -a 0 -x {0.0 3.0 1 ------- null}
+ -t 0.007792 -s 3 -d 2 -p ack -e 40 -c 0 -i 4 -a 0 -x {3.0 0.0 1 ------- null}
- -t 0.007792 -s 3 -d 2 -p ack -e 40 -c 0 -i 4 -a 0 -x {3.0 0.0 1 ------- null}
h -t 0.007792 -s 3 -d 2 -p ack -e 40 -c 0 -i 4 -a 0 -x {3.0 0.0 -1 ------- null}
r -t 0.008624 -s 2 -d 3 -p tcp -e 1040 -c 0 -i 3 -a 0 -x {0.0 3.0 2 ------- null}
+ -t 0.008624 -s 3 -d 2 -p ack -e 40 -c 0 -i 5 -a 0 -x {3.0 0.0 2 ------- null}
- -t 0.008624 -s 3 -d 2 -p ack -e 40 -c 0 -i 5 -a 0 -x {3.0 0.0 2 ------- null}
h -t 0.008624 -s 3 -d 2 -p ack -e 40 -c 0 -i 5 -a 0 -x {3.0 0.0 -1 ------- null}
r -t 0.008824 -s 3 -d 2 -p ack -e 40 -c 0 -i 4 -a 0 -x {3.0 0.0 1 ------- null}
+ -t 0.008824 -s 2 -d 0 -p ack -e 40 -c 0 -i 4 -a 0 -x {3.0 0.0 1 ------- null}
- -t 0.008824 -s 2 -d 0 -p ack -e 40 -c 0 -i 4 -a 0 -x {3.0 0.0 1 ------- null}
h -t 0.008824 -s 2 -d 0 -p ack -e 40 -c 0 -i 4 -a 0 -x {3.0 0.0 -1 ------- null}
r -t 0.009656 -s 3 -d 2 -p ack -e 40 -c 0 -i 5 -a 0 -x {3.0 0.0 2 ------- null}
+ -t 0.009656 -s 2 -d 0 -p ack -e 40 -c 0 -i 5 -a 0 -x {3.0 0.0 2 ------- null}
- -t 0.009656 -s 2 -d 0 -p ack -e 40 -c 0 -i 5 -a 0 -x {3.0 0.0 2 ------- null}
h -t 0.009656 -s 2 -d 0 -p ack -e 40 -c 0 -i 5 -a 0 -x {3.0 0.0 -1 ------- null}
r -t 0.009856 -s 2 -d 0 -p ack -e 40 -c 0 -i 4 -a 0 -x {3.0 0.0 1 ------- null}
+ -t 0.009856 -s 0 -d 2 -p tcp -e 1040 -c 0 -i 6 -a 0 -x {0.0 3.0 3 ------- null}
- -t 0.009856 -s 0 -d 2 -p tcp -e 1040 -c 0 -i 6 -a 0 -x {0.0 3.0 3 ------- null}
h -t 0.009856 -s 0 -d 2 -p tcp -e 1040 -c 0 -i 6 -a 0 -x {0.0 3.0 -1 ------- null}
+ -t 0.009856 -s 0 -d 2 -p tcp -e 1040 -c 0 -i 7 -a 0 -x {0.0 3.0 4 ------- null}
r -t 0.010688 -s 2 -d 0 -p ack -e 40 -c 0 -i 5 -a 0 -x {3.0 0.0 2 ------- null}
+ -t 0.010688 -s 0 -d 2 -p tcp -e 1040 -c 0 -i 8 -a 0 -x {0.0 3.0 5 ------- null}
+ -t 0.010688 -s 0 -d 2 -p tcp -e 1040 -c 0 -i 9 -a 0 -x {0.0 3.0 6 ------- null}
- -t 0.010688 -s 0 -d 2 -p tcp -e 1040 -c 0 -i 7 -a 0 -x {0.0 3.0 4 ------- null}
h -t 0.010688 -s 0 -d 2 -p tcp -e 1040 -c 0 -i 7 -a 0 -x {0.0 3.0 -1 ------- null}
- -t 0.01152 -s 0 -d 2 -p tcp -e 1040 -c 0 -i 8 -a 0 -x {0.0 3.0 5 ------- null}
h -t 0.01152 -s 0 -d 2 -p tcp -e 1040 -c 0 -i 8 -a 0 -x {0.0 3.0 -1 ------- null}
r -t 0.011688 -s 0 -d 2 -p tcp -e 1040 -c 0 -i 6 -a 0 -x {0.0 3.0 3 ------- null}
+ -t 0.011688 -s 2 -d 3 -p tcp -e 1040 -c 0 -i 6 -a 0 -x {0.0 3.0 3 ------- null}
- -t 0.011688 -s 2 -d 3 -p tcp -e 1040 -c 0 -i 6 -a 0 -x {0.0 3.0 3 ------- null}
h -t 0.011688 -s 2 -d 3 -p tcp -e 1040 -c 0 -i 6 -a 0 -x {0.0 3.0 -1 ------- null}
- -t 0.012352 -s 0 -d 2 -p tcp -e 1040 -c 0 -i 9 -a 0 -x {0.0 3.0 6 ------- null}
h -t 0.012352 -s 0 -d 2 -p tcp -e 1040 -c 0 -i 9 -a 0 -x {0.0 3.0 -1 ------- null}
r -t 0.01252 -s 0 -d 2 -p tcp -e 1040 -c 0 -i 7 -a 0 -x {0.0 3.0 4 ------- null}
+ -t 0.01252 -s 2 -d 3 -p tcp -e 1040 -c 0 -i 7 -a 0 -x {0.0 3.0 4 ------- null}
- -t 0.01252 -s 2 -d 3 -p tcp -e 1040 -c 0 -i 7 -a 0 -x {0.0 3.0 4 ------- null}
h -t 0.01252 -s 2 -d 3 -p tcp -e 1040 -c 0 -i 7 -a 0 -x {0.0 3.0 -1 ------- null}
r -t 0.013352 -s 0 -d 2 -p tcp -e 1040 -c 0 -i 8 -a 0 -x {0.0 3.0 5 ------- null}
+ -t 0.013352 -s 2 -d 3 -p tcp -e 1040 -c 0 -i 8 -a 0 -x {0.0 3.0 5 ------- null}
- -t 0.013352 -s 2 -d 3 -p tcp -e 1040 -c 0 -i 8 -a 0 -x {0.0 3.0 5 ------- null}
h -t 0.013352 -s 2 -d 3 -p tcp -e 1040 -c 0 -i 8 -a 0 -x {0.0 3.0 -1 ------- null}
r -t 0.01352 -s 2 -d 3 -p tcp -e 1040 -c 0 -i 6 -a 0 -x {0.0 3.0 3 ------- null}
+ -t 0.01352 -s 3 -d 2 -p ack -e 40 -c 0 -i 10 -a 0 -x {3.0 0.0 3 ------- null}
- -t 0.01352 -s 3 -d 2 -p ack -e 40 -c 0 -i 10 -a 0 -x {3.0 0.0 3 ------- null}
h -t 0.01352 -s 3 -d 2 -p ack -e 40 -c 0 -i 10 -a 0 -x {3.0 0.0 -1 ------- null}
r -t 0.014184 -s 0 -d 2 -p tcp -e 1040 -c 0 -i 9 -a 0 -x {0.0 3.0 6 ------- null}
+ -t 0.014184 -s 2 -d 3 -p tcp -e 1040 -c 0 -i 9 -a 0 -x {0.0 3.0 6 ------- null}
- -t 0.014184 -s 2 -d 3 -p tcp -e 1040 -c 0 -i 9 -a 0 -x {0.0 3.0 6 ------- null}
h -t 0.014184 -s 2 -d 3 -p tcp -e 1040 -c 0 -i 9 -a 0 -x {0.0 3.0 -1 ------- null}
r -t 0.014352 -s 2 -d 3 -p tcp -e 1040 -c 0 -i 7 -a 0 -x {0.0 3.0 4 ------- null}
+ -t 0.014352 -s 3 -d 2 -p ack -e 40 -c 0 -i 11 -a 0 -x {3.0 0.0 4 ------- null}
- -t 0.014352 -s 3 -d 2 -p ack -e 40 -c 0 -i 11 -a 0 -x {3.0 0.0 4 ------- null}
h -t 0.014352 -s 3 -d 2 -p ack -e 40 -c 0 -i 11 -a 0 -x {3.0 0.0 -1 ------- null}
r -t 0.014552 -s 3 -d 2 -p ack -e 40 -c 0 -i 10 -a 0 -x {3.0 0.0 3 ------- null}
+ -t 0.014552 -s 2 -d 0 -p ack -e 40 -c 0 -i 10 -a 0 -x {3.0 0.0 3 ------- null}
- -t 0.014552 -s 2 -d 0 -p ack -e 40 -c 0 -i 10 -a 0 -x {3.0 0.0 3 ------- null}
h -t 0.014552 -s 2 -d 0 -p ack -e 40 -c 0 -i 10 -a 0 -x {3.0 0.0 -1 ------- null}
r -t 0.015184 -s 2 -d 3 -p tcp -e 1040 -c 0 -i 8 -a 0 -x {0.0 3.0 5 ------- null}
+ -t 0.015184 -s 3 -d 2 -p ack -e 40 -c 0 -i 12 -a 0 -x {3.0 0.0 5 ------- null}
- -t 0.015184 -s 3 -d 2 -p ack -e 40 -c 0 -i 12 -a 0 -x {3.0 0.0 5 ------- null}
h -t 0.015184 -s 3 -d 2 -p ack -e 40 -c 0 -i 12 -a 0 -x {3.0 0.0 -1 ------- null}
r -t 0.015384 -s 3 -d 2 -p ack -e 40 -c 0 -i 11 -a 0 -x {3.0 0.0 4 ------- null}
+ -t 0.015384 -s 2 -d 0 -p ack -e 40 -c 0 -i 11 -a 0 -x {3.0 0.0 4 ------- null}
- -t 0.015384 -s 2 -d 0 -p ack -e 40 -c 0 -i 11 -a 0 -x {3.0 0.0 4 ------- null}
h -t 0.015384 -s 2 -d 0 -p ack -e 40 -c 0 -i 11 -a 0 -x {3.0 0.0 -1 ------- null}
r -t 0.015584 -s 2 -d 0 -p ack -e 40 -c 0 -i 10 -a 0 -x {3.0 0.0 3 ------- null}
+ -t 0.015584 -s 0 -d 2 -p tcp -e 1040 -c 0 -i 13 -a 0 -x {0.0 3.0 7 ------- null}
- -t 0.015584 -s 0 -d 2 -p tcp -e 1040 -c 0 -i 13 -a 0 -x {0.0 3.0 7 ------- null}
h -t 0.015584 -s 0 -d 2 -p tcp -e 1040 -c 0 -i 13 -a 0 -x {0.0 3.0 -1 ------- null}
+ -t 0.015584 -s 0 -d 2 -p tcp -e 1040 -c 0 -i 14 -a 0 -x {0.0 3.0 8 ------- null}
r -t 0.016016 -s 2 -d 3 -p tcp -e 1040 -c 0 -i 9 -a 0 -x {0.0 3.0 6 ------- null}
+ -t 0.016016 -s 3 -d 2 -p ack -e 40 -c 0 -i 15 -a 0 -x {3.0 0.0 6 ------- null}
- -t 0.016016 -s 3 -d 2 -p ack -e 40 -c 0 -i 15 -a 0 -x {3.0 0.0 6 ------- null}
h -t 0.016016 -s 3 -d 2 -p ack -e 40 -c 0 -i 15 -a 0 -x {3.0 0.0 -1 ------- null}
r -t 0.016216 -s 3 -d 2 -p ack -e 40 -c 0 -i 12 -a 0 -x {3.0 0.0 5 ------- null}
+ -t 0.016216 -s 2 -d 0 -p ack -e 40 -c 0 -i 12 -a 0 -x {3.0 0.0 5 ------- null}
- -t 0.016216 -s 2 -d 0 -p ack -e 40 -c 0 -i 12 -a 0 -x {3.0 0.0 5 ------- null}
h -t 0.016216 -s 2 -d 0 -p ack -e 40 -c 0 -i 12 -a 0 -x {3.0 0.0 -1 ------- null}
r -t 0.016416 -s 2 -d 0 -p ack -e 40 -c 0 -i 11 -a 0 -x {3.0 0.0 4 ------- null}
+ -t 0.016416 -s 0 -d 2 -p tcp -e 1040 -c 0 -i 16 -a 0 -x {0.0 3.0 9 ------- null}
+ -t 0.016416 -s 0 -d 2 -p tcp -e 1040 -c 0 -i 17 -a 0 -x {0.0 3.0 10 ------- null}
- -t 0.016416 -s 0 -d 2 -p tcp -e 1040 -c 0 -i 14 -a 0 -x {0.0 3.0 8 ------- null}
h -t 0.016416 -s 0 -d 2 -p tcp -e 1040 -c 0 -i 14 -a 0 -x {0.0 3.0 -1 ------- null}
r -t 0.017048 -s 3 -d 2 -p ack -e 40 -c 0 -i 15 -a 0 -x {3.0 0.0 6 ------- null}
+ -t 0.017048 -s 2 -d 0 -p ack -e 40 -c 0 -i 15 -a 0 -x {3.0 0.0 6 ------- null}
- -t 0.017048 -s 2 -d 0 -p ack -e 40 -c 0 -i 15 -a 0 -x {3.0 0.0 6 ------- null}
h -t 0.017048 -s 2 -d 0 -p ack -e 40 -c 0 -i 15 -a 0 -x {3.0 0.0 -1 ------- null}
r -t 0.017248 -s 2 -d 0 -p ack -e 40 -c 0 -i 12 -a 0 -x {3.0 0.0 5 ------- null}
+ -t 0.017248 -s 0 -d 2 -p tcp -e 1040 -c 0 -i 18 -a 0 -x {0.0 3.0 11 ------- null}
+ -t 0.017248 -s 0 -d 2 -p tcp -e 1040 -c 0 -i 19 -a 0 -x {0.0 3.0 12 ------- null}
- -t 0.017248 -s 0 -d 2 -p tcp -e 1040 -c 0 -i 16 -a 0 -x {0.0 3.0 9 ------- null}
h -t 0.017248 -s 0 -d 2 -p tcp -e 1040 -c 0 -i 16 -a 0 -x {0.0 3.0 -1 ------- null}
r -t 0.017416 -s 0 -d 2 -p tcp -e 1040 -c 0 -i 13 -a 0 -x {0.0 3.0 7 ------- null}
+ -t 0.017416 -s 2 -d 3 -p tcp -e 1040 -c 0 -i 13 -a 0 -x {0.0 3.0 7 ------- null}
- -t 0.017416 -s 2 -d 3 -p tcp -e 1040 -c 0 -i 13 -a 0 -x {0.0 3.0 7 ------- null}
h -t 0.017416 -s 2 -d 3 -p tcp -e 1040 -c 0 -i 13 -a 0 -x {0.0 3.0 -1 ------- null}
r -t 0.01808 -s 2 -d 0 -p ack -e 40 -c 0 -i 15 -a 0 -x {3.0 0.0 6 ------- null}
+ -t 0.01808 -s 0 -d 2 -p tcp -e 1040 -c 0 -i 20 -a 0 -x {0.0 3.0 13 ------- null}
+ -t 0.01808 -s 0 -d 2 -p tcp -e 1040 -c 0 -i 21 -a 0 -x {0.0 3.0 14 ------- null}
- -t 0.01808 -s 0 -d 2 -p tcp -e 1040 -c 0 -i 17 -a 0 -x {0.0 3.0 10 ------- null}
h -t 0.01808 -s 0 -d 2 -p tcp -e 1040 -c 0 -i 17 -a 0 -x {0.0 3.0 -1 ------- null}
r -t 0.018248 -s 0 -d 2 -p tcp -e 1040 -c 0 -i 14 -a 0 -x {0.0 3.0 8 ------- null}
+ -t 0.018248 -s 2 -d 3 -p tcp -e 1040 -c 0 -i 14 -a 0 -x {0.0 3.0 8 ------- null}
- -t 0.018248 -s 2 -d 3 -p tcp -e 1040 -c 0 -i 14 -a 0 -x {0.0 3.0 8 ------- null}
h -t 0.018248 -s 2 -d 3 -p tcp -e 1040 -c 0 -i 14 -a 0 -x {0.0 3.0 -1 ------- null}
- -t 0.018912 -s 0 -d 2 -p tcp -e 1040 -c 0 -i 18 -a 0 -x {0.0 3.0 11 ------- null}
h -t 0.018912 -s 0 -d 2 -p tcp -e 1040 -c 0 -i 18 -a 0 -x {0.0 3.0 -1 ------- null}
r -t 0.01908 -s 0 -d 2 -p tcp -e 1040 -c 0 -i 16 -a 0 -x {0.0 3.0 9 ------- null}
+ -t 0.01908 -s 2 -d 3 -p tcp -e 1040 -c 0 -i 16 -a 0 -x {0.0 3.0 9 ------- null}
- -t 0.01908 -s 2 -d 3 -p tcp -e 1040 -c 0 -i 16 -a 0 -x {0.0 3.0 9 ------- null}
h -t 0.01908 -s 2 -d 3 -p tcp -e 1040 -c 0 -i 16 -a 0 -x {0.0 3.0 -1 ------- null}
r -t 0.019248 -s 2 -d 3 -p tcp -e 1040 -c 0 -i 13 -a 0 -x {0.0 3.0 7 ------- null}
+ -t 0.019248 -s 3 -d 2 -p ack -e 40 -c 0 -i 22 -a 0 -x {3.0 0.0 7 ------- null}
- -t 0.019248 -s 3 -d 2 -p ack -e 40 -c 0 -i 22 -a 0 -x {3.0 0.0 7 ------- null}
h -t 0.019248 -s 3 -d 2 -p ack -e 40 -c 0 -i 22 -a 0 -x {3.0 0.0 -1 ------- null}
- -t 0.019744 -s 0 -d 2 -p tcp -e 1040 -c 0 -i 19 -a 0 -x {0.0 3.0 12 ------- null}
h -t 0.019744 -s 0 -d 2 -p tcp -e 1040 -c 0 -i 19 -a 0 -x {0.0 3.0 -1 ------- null}
r -t 0.019912 -s 0 -d 2 -p tcp -e 1040 -c 0 -i 17 -a 0 -x {0.0 3.0 10 ------- null}
+ -t 0.019912 -s 2 -d 3 -p tcp -e 1040 -c 0 -i 17 -a 0 -x {0.0 3.0 10 ------- null}
- -t 0.019912 -s 2 -d 3 -p tcp -e 1040 -c 0 -i 17 -a 0 -x {0.0 3.0 10 ------- null}
h -t 0.019912 -s 2 -d 3 -p tcp -e 1040 -c 0 -i 17 -a 0 -x {0.0 3.0 -1 ------- null}
r -t 0.02008 -s 2 -d 3 -p tcp -e 1040 -c 0 -i 14 -a 0 -x {0.0 3.0 8 ------- null}
+ -t 0.02008 -s 3 -d 2 -p ack -e 40 -c 0 -i 23 -a 0 -x {3.0 0.0 8 ------- null}
- -t 0.02008 -s 3 -d 2 -p ack -e 40 -c 0 -i 23 -a 0 -x {3.0 0.0 8 ------- null}
h -t 0.02008 -s 3 -d 2 -p ack -e 40 -c 0 -i 23 -a 0 -x {3.0 0.0 -1 ------- null}
r -t 0.02028 -s 3 -d 2 -p ack -e 40 -c 0 -i 22 -a 0 -x {3.0 0.0 7 ------- null}
+ -t 0.02028 -s 2 -d 0 -p ack -e 40 -c 0 -i 22 -a 0 -x {3.0 0.0 7 ------- null}
- -t 0.02028 -s 2 -d 0 -p ack -e 40 -c 0 -i 22 -a 0 -x {3.0 0.0 7 ------- null}
h -t 0.02028 -s 2 -d 0 -p ack -e 40 -c 0 -i 22 -a 0 -x {3.0 0.0 -1 ------- null}
- -t 0.020576 -s 0 -d 2 -p tcp -e 1040 -c 0 -i 20 -a 0 -x {0.0 3.0 13 ------- null}
h -t 0.020576 -s 0 -d 2 -p tcp -e 1040 -c 0 -i 20 -a 0 -x {0.0 3.0 -1 ------- null}
r -t 0.020744 -s 0 -d 2 -p tcp -e 1040 -c 0 -i 18 -a 0 -x {0.0 3.0 11 ------- null}
+ -t 0.020744 -s 2 -d 3 -p tcp -e 1040 -c 0 -i 18 -a 0 -x {0.0 3.0 11 ------- null}
- -t 0.020744 -s 2 -d 3 -p tcp -e 1040 -c 0 -i 18 -a 0 -x {0.0 3.0 11 ------- null}
h -t 0.020744 -s 2 -d 3 -p tcp -e 1040 -c 0 -i 18 -a 0 -x {0.0 3.0 -1 ------- null}
r -t 0.020912 -s 2 -d 3 -p tcp -e 1040 -c 0 -i 16 -a 0 -x {0.0 3.0 9 ------- null}
+ -t 0.020912 -s 3 -d 2 -p ack -e 40 -c 0 -i 24 -a 0 -x {3.0 0.0 9 ------- null}
- -t 0.020912 -s 3 -d 2 -p ack -e 40 -c 0 -i 24 -a 0 -x {3.0 0.0 9 ------- null}
h -t 0.020912 -s 3 -d 2 -p ack -e 40 -c 0 -i 24 -a 0 -x {3.0 0.0 -1 ------- null}
r -t 0.021112 -s 3 -d 2 -p ack -e 40 -c 0 -i 23 -a 0 -x {3.0 0.0 8 ------- null}
+ -t 0.021112 -s 2 -d 0 -p ack -e 40 -c 0 -i 23 -a 0 -x {3.0 0.0 8 ------- null}
- -t 0.021112 -s 2 -d 0 -p ack -e 40 -c 0 -i 23 -a 0 -x {3.0 0.0 8 ------- null}
h -t 0.021112 -s 2 -d 0 -p ack -e 40 -c 0 -i 23 -a 0 -x {3.0 0.0 -1 ------- null}
r -t 0.021312 -s 2 -d 0 -p ack -e 40 -c 0 -i 22 -a 0 -x {3.0 0.0 7 ------- null}
+ -t 0.021312 -s 0 -d 2 -p tcp -e 1040 -c 0 -i 25 -a 0 -x {0.0 3.0 15 ------- null}
+ -t 0.021312 -s 0 -d 2 -p tcp -e 1040 -c 0 -i 26 -a 0 -x {0.0 3.0 16 ------- null}
- -t 0.021408 -s 0 -d 2 -p tcp -e 1040 -c 0 -i 21 -a 0 -x {0.0 3.0 14 ------- null}
h -t 0.021408 -s 0 -d 2 -p tcp -e 1040 -c 0 -i 21 -a 0 -x {0.0 3.0 -1 ------- null}
r -t 0.021576 -s 0 -d 2 -p tcp -e 1040 -c 0 -i 19 -a 0 -x {0.0 3.0 12 ------- null}
+ -t 0.021576 -s 2 -d 3 -p tcp -e 1040 -c 0 -i 19 -a 0 -x {0.0 3.0 12 ------- null}
- -t 0.021576 -s 2 -d 3 -p tcp -e 1040 -c 0 -i 19 -a 0 -x {0.0 3.0 12 ------- null}
h -t 0.021576 -s 2 -d 3 -p tcp -e 1040 -c 0 -i 19 -a 0 -x {0.0 3.0 -1 ------- null}
r -t 0.021744 -s 2 -d 3 -p tcp -e 1040 -c 0 -i 17 -a 0 -x {0.0 3.0 10 ------- null}
+ -t 0.021744 -s 3 -d 2 -p ack -e 40 -c 0 -i 27 -a 0 -x {3.0 0.0 10 ------- null}
- -t 0.021744 -s 3 -d 2 -p ack -e 40 -c 0 -i 27 -a 0 -x {3.0 0.0 10 ------- null}
h -t 0.021744 -s 3 -d 2 -p ack -e 40 -c 0 -i 27 -a 0 -x {3.0 0.0 -1 ------- null}
r -t 0.021944 -s 3 -d 2 -p ack -e 40 -c 0 -i 24 -a 0 -x {3.0 0.0 9 ------- null}
+ -t 0.021944 -s 2 -d 0 -p ack -e 40 -c 0 -i 24 -a 0 -x {3.0 0.0 9 ------- null}
- -t 0.021944 -s 2 -d 0 -p ack -e 40 -c 0 -i 24 -a 0 -x {3.0 0.0 9 ------- null}
h -t 0.021944 -s 2 -d 0 -p ack -e 40 -c 0 -i 24 -a 0 -x {3.0 0.0 -1 ------- null}
r -t 0.022144 -s 2 -d 0 -p ack -e 40 -c 0 -i 23 -a 0 -x {3.0 0.0 8 ------- null}
+ -t 0.022144 -s 0 -d 2 -p tcp -e 1040 -c 0 -i 28 -a 0 -x {0.0 3.0 17 ------- null}
+ -t 0.022144 -s 0 -d 2 -p tcp -e 1040 -c 0 -i 29 -a 0 -x {0.0 3.0 18 ------- null}
- -t 0.02224 -s 0 -d 2 -p tcp -e 1040 -c 0 -i 25 -a 0 -x {0.0 3.0 15 ------- null}
h -t 0.02224 -s 0 -d 2 -p tcp -e 1040 -c 0 -i 25 -a 0 -x {0.0 3.0 -1 ------- null}
r -t 0.022408 -s 0 -d 2 -p tcp -e 1040 -c 0 -i 20 -a 0 -x {0.0 3.0 13 ------- null}
+ -t 0.022408 -s 2 -d 3 -p tcp -e 1040 -c 0 -i 20 -a 0 -x {0.0 3.0 13 ------- null}
- -t 0.022408 -s 2 -d 3 -p tcp -e 1040 -c 0 -i 20 -a 0 -x {0.0 3.0 13 ------- null}
h -t 0.022408 -s 2 -d 3 -p tcp -e 1040 -c 0 -i 20 -a 0 -x {0.0 3.0 -1 ------- null}
r -t 0.022576 -s 2 -d 3 -p tcp -e 1040 -c 0 -i 18 -a 0 -x {0.0 3.0 11 ------- null}
+ -t 0.022576 -s 3 -d 2 -p ack -e 40 -c 0 -i 30 -a 0 -x {3.0 0.0 11 ------- null}
- -t 0.022576 -s 3 -d 2 -p ack -e 40 -c 0 -i 30 -a 0 -x {3.0 0.0 11 ------- null}
h -t 0.022576 -s 3 -d 2 -p ack -e 40 -c 0 -i 30 -a 0 -x {3.0 0.0 -1 ------- null}
r -t 0.022776 -s 3 -d 2 -p ack -e 40 -c 0 -i 27 -a 0 -x {3.0 0.0 10 ------- null}
+ -t 0.022776 -s 2 -d 0 -p ack -e 40 -c 0 -i 27 -a 0 -x {3.0 0.0 10 ------- null}
- -t 0.022776 -s 2 -d 0 -p ack -e 40 -c 0 -i 27 -a 0 -x {3.0 0.0 10 ------- null}
h -t 0.022776 -s 2 -d 0 -p ack -e 40 -c 0 -i 27 -a 0 -x {3.0 0.0 -1 ------- null}
r -t 0.022976 -s 2 -d 0 -p ack -e 40 -c 0 -i 24 -a 0 -x {3.0 0.0 9 ------- null}
+ -t 0.022976 -s 0 -d 2 -p tcp -e 1040 -c 0 -i 31 -a 0 -x {0.0 3.0 19 ------- null}
+ -t 0.022976 -s 0 -d 2 -p tcp -e 1040 -c 0 -i 32 -a 0 -x {0.0 3.0 20 ------- null}
- -t 0.023072 -s 0 -d 2 -p tcp -e 1040 -c 0 -i 26 -a 0 -x {0.0 3.0 16 ------- null}
h -t 0.023072 -s 0 -d 2 -p tcp -e 1040 -c 0 -i 26 -a 0 -x {0.0 3.0 -1 ------- null}
r -t 0.02324 -s 0 -d 2 -p tcp -e 1040 -c 0 -i 21 -a 0 -x {0.0 3.0 14 ------- null}
+ -t 0.02324 -s 2 -d 3 -p tcp -e 1040 -c 0 -i 21 -a 0 -x {0.0 3.0 14 ------- null}
- -t 0.02324 -s 2 -d 3 -p tcp -e 1040 -c 0 -i 21 -a 0 -x {0.0 3.0 14 ------- null}
h -t 0.02324 -s 2 -d 3 -p tcp -e 1040 -c 0 -i 21 -a 0 -x {0.0 3.0 -1 ------- null}
r -t 0.023408 -s 2 -d 3 -p tcp -e 1040 -c 0 -i 19 -a 0 -x {0.0 3.0 12 ------- null}
+ -t 0.023408 -s 3 -d 2 -p ack -e 40 -c 0 -i 33 -a 0 -x {3.0 0.0 12 ------- null}
- -t 0.023408 -s 3 -d 2 -p ack -e 40 -c 0 -i 33 -a 0 -x {3.0 0.0 12 ------- null}
h -t 0.023408 -s 3 -d 2 -p ack -e 40 -c 0 -i 33 -a 0 -x {3.0 0.0 -1 ------- null}
r -t 0.023608 -s 3 -d 2 -p ack -e 40 -c 0 -i 30 -a 0 -x {3.0 0.0 11 ------- null}
+ -t 0.023608 -s 2 -d 0 -p ack -e 40 -c 0 -i 30 -a 0 -x {3.0 0.0 11 ------- null}
- -t 0.023608 -s 2 -d 0 -p ack -e 40 -c 0 -i 30 -a 0 -x {3.0 0.0 11 ------- null}
h -t 0.023608 -s 2 -d 0 -p ack -e 40 -c 0 -i 30 -a 0 -x {3.0 0.0 -1 ------- null}
r -t 0.023808 -s 2 -d 0 -p ack -e 40 -c 0 -i 27 -a 0 -x {3.0 0.0 10 ------- null}
+ -t 0.023808 -s 0 -d 2 -p tcp -e 1040 -c 0 -i 34 -a 0 -x {0.0 3.0 21 ------- null}
+ -t 0.023808 -s 0 -d 2 -p tcp -e 1040 -c 0 -i 35 -a 0 -x {0.0 3.0 22 ------- null}
- -t 0.023904 -s 0 -d 2 -p tcp -e 1040 -c 0 -i 28 -a 0 -x {0.0 3.0 17 ------- null}
h -t 0.023904 -s 0 -d 2 -p tcp -e 1040 -c 0 -i 28 -a 0 -x {0.0 3.0 -1 ------- null}
r -t 0.024072 -s 0 -d 2 -p tcp -e 1040 -c 0 -i 25 -a 0 -x {0.0 3.0 15 ------- null}
+ -t 0.024072 -s 2 -d 3 -p tcp -e 1040 -c 0 -i 25 -a 0 -x {0.0 3.0 15 ------- null}
- -t 0.024072 -s 2 -d 3 -p tcp -e 1040 -c 0 -i 25 -a 0 -x {0.0 3.0 15 ------- null}
h -t 0.024072 -s 2 -d 3 -p tcp -e 1040 -c 0 -i 25 -a 0 -x {0.0 3.0 -1 ------- null}
r -t 0.02424 -s 2 -d 3 -p tcp -e 1040 -c 0 -i 20 -a 0 -x {0.0 3.0 13 ------- null}
+ -t 0.02424 -s 3 -d 2 -p ack -e 40 -c 0 -i 36 -a 0 -x {3.0 0.0 13 ------- null}
- -t 0.02424 -s 3 -d 2 -p ack -e 40 -c 0 -i 36 -a 0 -x {3.0 0.0 13 ------- null}
h -t 0.02424 -s 3 -d 2 -p ack -e 40 -c 0 -i 36 -a 0 -x {3.0 0.0 -1 ------- null}
r -t 0.02444 -s 3 -d 2 -p ack -e 40 -c 0 -i 33 -a 0 -x {3.0 0.0 12 ------- null}
+ -t 0.02444 -s 2 -d 0 -p ack -e 40 -c 0 -i 33 -a 0 -x {3.0 0.0 12 ------- null}
- -t 0.02444 -s 2 -d 0 -p ack -e 40 -c 0 -i 33 -a 0 -x {3.0 0.0 12 ------- null}
h -t 0.02444 -s 2 -d 0 -p ack -e 40 -c 0 -i 33 -a 0 -x {3.0 0.0 -1 ------- null}
r -t 0.02464 -s 2 -d 0 -p ack -e 40 -c 0 -i 30 -a 0 -x {3.0 0.0 11 ------- null}
+ -t 0.02464 -s 0 -d 2 -p tcp -e 1040 -c 0 -i 37 -a 0 -x {0.0 3.0 23 ------- null}
+ -t 0.02464 -s 0 -d 2 -p tcp -e 1040 -c 0 -i 38 -a 0 -x {0.0 3.0 24 ------- null}
- -t 0.024736 -s 0 -d 2 -p tcp -e 1040 -c 0 -i 29 -a 0 -x {0.0 3.0 18 ------- null}
h -t 0.024736 -s 0 -d 2 -p tcp -e 1040 -c 0 -i 29 -a 0 -x {0.0 3.0 -1 ------- null}
r -t 0.024904 -s 0 -d 2 -p tcp -e 1040 -c 0 -i 26 -a 0 -x {0.0 3.0 16 ------- null}
+ -t 0.024904 -s 2 -d 3 -p tcp -e 1040 -c 0 -i 26 -a 0 -x {0.0 3.0 16 ------- null}
- -t 0.024904 -s 2 -d 3 -p tcp -e 1040 -c 0 -i 26 -a 0 -x {0.0 3.0 16 ------- null}
h -t 0.024904 -s 2 -d 3 -p tcp -e 1040 -c 0 -i 26 -a 0 -x {0.0 3.0 -1 ------- null}
r -t 0.025072 -s 2 -d 3 -p tcp -e 1040 -c 0 -i 21 -a 0 -x {0.0 3.0 14 ------- null}
+ -t 0.025072 -s 3 -d 2 -p ack -e 40 -c 0 -i 39 -a 0 -x {3.0 0.0 14 ------- null}
- -t 0.025072 -s 3 -d 2 -p ack -e 40 -c 0 -i 39 -a 0 -x {3.0 0.0 14 ------- null}
h -t 0.025072 -s 3 -d 2 -p ack -e 40 -c 0 -i 39 -a 0 -x {3.0 0.0 -1 ------- null}
r -t 0.025272 -s 3 -d 2 -p ack -e 40 -c 0 -i 36 -a 0 -x {3.0 0.0 13 ------- null}
+ -t 0.025272 -s 2 -d 0 -p ack -e 40 -c 0 -i 36 -a 0 -x {3.0 0.0 13 ------- null}
- -t 0.025272 -s 2 -d 0 -p ack -e 40 -c 0 -i 36 -a 0 -x {3.0 0.0 13 ------- null}
h -t 0.025272 -s 2 -d 0 -p ack -e 40 -c 0 -i 36 -a 0 -x {3.0 0.0 -1 ------- null}
r -t 0.025472 -s 2 -d 0 -p ack -e 40 -c 0 -i 33 -a 0 -x {3.0 0.0 12 ------- null}
+ -t 0.025472 -s 0 -d 2 -p tcp -e 1040 -c 0 -i 40 -a 0 -x {0.0 3.0 25 ------- null}
+ -t 0.025472 -s 0 -d 2 -p tcp -e 1040 -c 0 -i 41 -a 0 -x {0.0 3.0 26 ------- null}
- -t 0.025568 -s 0 -d 2 -p tcp -e 1040 -c 0 -i 31 -a 0 -x {0.0 3.0 19 ------- null}
h -t 0.025568 -s 0 -d 2 -p tcp -e 1040 -c 0 -i 31 -a 0 -x {0.0 3.0 -1 ------- null}
r -t 0.025736 -s 0 -d 2 -p tcp -e 1040 -c 0 -i 28 -a 0 -x {0.0 3.0 17 ------- null}
+ -t 0.025736 -s 2 -d 3 -p tcp -e 1040 -c 0 -i 28 -a 0 -x {0.0 3.0 17 ------- null}
- -t 0.025736 -s 2 -d 3 -p tcp -e 1040 -c 0 -i 28 -a 0 -x {0.0 3.0 17 ------- null}
h -t 0.025736 -s 2 -d 3 -p tcp -e 1040 -c 0 -i 28 -a 0 -x {0.0 3.0 -1 ------- null}
r -t 0.025904 -s 2 -d 3 -p tcp -e 1040 -c 0 -i 25 -a 0 -x {0.0 3.0 15 ------- null}
+ -t 0.025904 -s 3 -d 2 -p ack -e 40 -c 0 -i 42 -a 0 -x {3.0 0.0 15 ------- null}
- -t 0.025904 -s 3 -d 2 -p ack -e 40 -c 0 -i 42 -a 0 -x {3.0 0.0 15 ------- null}
h -t 0.025904 -s 3 -d 2 -p ack -e 40 -c 0 -i 42 -a 0 -x {3.0 0.0 -1 ------- null}
r -t 0.026104 -s 3 -d 2 -p ack -e 40 -c 0 -i 39 -a 0 -x {3.0 0.0 14 ------- null}
+ -t 0.026104 -s 2 -d 0 -p ack -e 40 -c 0 -i 39 -a 0 -x {3.0 0.0 14 ------- null}
- -t 0.026104 -s 2 -d 0 -p ack -e 40 -c 0 -i 39 -a 0 -x {3.0 0.0 14 ------- null}
h -t 0.026104 -s 2 -d 0 -p ack -e 40 -c 0 -i 39 -a 0 -x {3.0 0.0 -1 ------- null}
r -t 0.026304 -s 2 -d 0 -p ack -e 40 -c 0 -i 36 -a 0 -x {3.0 0.0 13 ------- null}
+ -t 0.026304 -s 0 -d 2 -p tcp -e 1040 -c 0 -i 43 -a 0 -x {0.0 3.0 27 ------- null}
+ -t 0.026304 -s 0 -d 2 -p tcp -e 1040 -c 0 -i 44 -a 0 -x {0.0 3.0 28 ------- null}
- -t 0.0264 -s 0 -d 2 -p tcp -e 1040 -c 0 -i 32 -a 0 -x {0.0 3.0 20 ------- null}
h -t 0.0264 -s 0 -d 2 -p tcp -e 1040 -c 0 -i 32 -a 0 -x {0.0 3.0 -1 ------- null}
r -t 0.026568 -s 0 -d 2 -p tcp -e 1040 -c 0 -i 29 -a 0 -x {0.0 3.0 18 ------- null}
+ -t 0.026568 -s 2 -d 3 -p tcp -e 1040 -c 0 -i 29 -a 0 -x {0.0 3.0 18 ------- null}
- -t 0.026568 -s 2 -d 3 -p tcp -e 1040 -c 0 -i 29 -a 0 -x {0.0 3.0 18 ------- null}
h -t 0.026568 -s 2 -d 3 -p tcp -e 1040 -c 0 -i 29 -a 0 -x {0.0 3.0 -1 ------- null}
r -t 0.026736 -s 2 -d 3 -p tcp -e 1040 -c 0 -i 26 -a 0 -x {0.0 3.0 16 ------- null}
+ -t 0.026736 -s 3 -d 2 -p ack -e 40 -c 0 -i 45 -a 0 -x {3.0 0.0 16 ------- null}
- -t 0.026736 -s 3 -d 2 -p ack -e 40 -c 0 -i 45 -a 0 -x {3.0 0.0 16 ------- null}
h -t 0.026736 -s 3 -d 2 -p ack -e 40 -c 0 -i 45 -a 0 -x {3.0 0.0 -1 ------- null}
r -t 0.026936 -s 3 -d 2 -p ack -e 40 -c 0 -i 42 -a 0 -x {3.0 0.0 15 ------- null}
+ -t 0.026936 -s 2 -d 0 -p ack -e 40 -c 0 -i 42 -a 0 -x {3.0 0.0 15 ------- null}
- -t 0.026936 -s 2 -d 0 -p ack -e 40 -c 0 -i 42 -a 0 -x {3.0 0.0 15 ------- null}
h -t 0.026936 -s 2 -d 0 -p ack -e 40 -c 0 -i 42 -a 0 -x {3.0 0.0 -1 ------- null}
r -t 0.027136 -s 2 -d 0 -p ack -e 40 -c 0 -i 39 -a 0 -x {3.0 0.0 14 ------- null}
+ -t 0.027136 -s 0 -d 2 -p tcp -e 1040 -c 0 -i 46 -a 0 -x {0.0 3.0 29 ------- null}
+ -t 0.027136 -s 0 -d 2 -p tcp -e 1040 -c 0 -i 47 -a 0 -x {0.0 3.0 30 ------- null}
d -t 0.027136 -s 0 -d 2 -p tcp -e 1040 -c 0 -i 47 -a 0 -x {0.0 3.0 30 ------- null}
- -t 0.027232 -s 0 -d 2 -p tcp -e 1040 -c 0 -i 34 -a 0 -x {0.0 3.0 21 ------- null}
h -t 0.027232 -s 0 -d 2 -p tcp -e 1040 -c 0 -i 34 -a 0 -x {0.0 3.0 -1 ------- null}
r -t 0.0274 -s 0 -d 2 -p tcp -e 1040 -c 0 -i 31 -a 0 -x {0.0 3.0 19 ------- null}
+ -t 0.0274 -s 2 -d 3 -p tcp -e 1040 -c 0 -i 31 -a 0 -x {0.0 3.0 19 ------- null}
- -t 0.0274 -s 2 -d 3 -p tcp -e 1040 -c 0 -i 31 -a 0 -x {0.0 3.0 19 ------- null}
h -t 0.0274 -s 2 -d 3 -p tcp -e 1040 -c 0 -i 31 -a 0 -x {0.0 3.0 -1 ------- null}
r -t 0.027568 -s 2 -d 3 -p tcp -e 1040 -c 0 -i 28 -a 0 -x {0.0 3.0 17 ------- null}
+ -t 0.027568 -s 3 -d 2 -p ack -e 40 -c 0 -i 48 -a 0 -x {3.0 0.0 17 ------- null}
- -t 0.027568 -s 3 -d 2 -p ack -e 40 -c 0 -i 48 -a 0 -x {3.0 0.0 17 ------- null}
h -t 0.027568 -s 3 -d 2 -p ack -e 40 -c 0 -i 48 -a 0 -x {3.0 0.0 -1 ------- null}
r -t 0.027768 -s 3 -d 2 -p ack -e 40 -c 0 -i 45 -a 0 -x {3.0 0.0 16 ------- null}
+ -t 0.027768 -s 2 -d 0 -p ack -e 40 -c 0 -i 45 -a 0 -x {3.0 0.0 16 ------- null}
- -t 0.027768 -s 2 -d 0 -p ack -e 40 -c 0 -i 45 -a 0 -x {3.0 0.0 16 ------- null}
h -t 0.027768 -s 2 -d 0 -p ack -e 40 -c 0 -i 45 -a 0 -x {3.0 0.0 -1 ------- null}
r -t 0.027968 -s 2 -d 0 -p ack -e 40 -c 0 -i 42 -a 0 -x {3.0 0.0 15 ------- null}
+ -t 0.027968 -s 0 -d 2 -p tcp -e 1040 -c 0 -i 49 -a 0 -x {0.0 3.0 31 ------- null}
+ -t 0.027968 -s 0 -d 2 -p tcp -e 1040 -c 0 -i 50 -a 0 -x {0.0 3.0 32 ------- null}
d -t 0.027968 -s 0 -d 2 -p tcp -e 1040 -c 0 -i 50 -a 0 -x {0.0 3.0 32 ------- null}
- -t 0.028064 -s 0 -d 2 -p tcp -e 1040 -c 0 -i 35 -a 0 -x {0.0 3.0 22 ------- null}
h -t 0.028064 -s 0 -d 2 -p tcp -e 1040 -c 0 -i 35 -a 0 -x {0.0 3.0 -1 ------- null}
r -t 0.028232 -s 0 -d 2 -p tcp -e 1040 -c 0 -i 32 -a 0 -x {0.0 3.0 20 ------- null}
+ -t 0.028232 -s 2 -d 3 -p tcp -e 1040 -c 0 -i 32 -a 0 -x {0.0 3.0 20 ------- null}
- -t 0.028232 -s 2 -d 3 -p tcp -e 1040 -c 0 -i 32 -a 0 -x {0.0 3.0 20 ------- null}
h -t 0.028232 -s 2 -d 3 -p tcp -e 1040 -c 0 -i 32 -a 0 -x {0.0 3.0 -1 ------- null}
r -t 0.0284 -s 2 -d 3 -p tcp -e 1040 -c 0 -i 29 -a 0 -x {0.0 3.0 18 ------- null}
+ -t 0.0284 -s 3 -d 2 -p ack -e 40 -c 0 -i 51 -a 0 -x {3.0 0.0 18 ------- null}
- -t 0.0284 -s 3 -d 2 -p ack -e 40 -c 0 -i 51 -a 0 -x {3.0 0.0 18 ------- null}
h -t 0.0284 -s 3 -d 2 -p ack -e 40 -c 0 -i 51 -a 0 -x {3.0 0.0 -1 ------- null}
r -t 0.0286 -s 3 -d 2 -p ack -e 40 -c 0 -i 48 -a 0 -x {3.0 0.0 17 ------- null}
+ -t 0.0286 -s 2 -d 0 -p ack -e 40 -c 0 -i 48 -a 0 -x {3.0 0.0 17 ------- null}
- -t 0.0286 -s 2 -d 0 -p ack -e 40 -c 0 -i 48 -a 0 -x {3.0 0.0 17 ------- null}
h -t 0.0286 -s 2 -d 0 -p ack -e 40 -c 0 -i 48 -a 0 -x {3.0 0.0 -1 ------- null}
r -t 0.0288 -s 2 -d 0 -p ack -e 40 -c 0 -i 45 -a 0 -x {3.0 0.0 16 ------- null}
+ -t 0.0288 -s 0 -d 2 -p tcp -e 1040 -c 0 -i 52 -a 0 -x {0.0 3.0 33 ------- null}
+ -t 0.0288 -s 0 -d 2 -p tcp -e 1040 -c 0 -i 53 -a 0 -x {0.0 3.0 34 ------- null}
d -t 0.0288 -s 0 -d 2 -p tcp -e 1040 -c 0 -i 53 -a 0 -x {0.0 3.0 34 ------- null}
- -t 0.028896 -s 0 -d 2 -p tcp -e 1040 -c 0 -i 37 -a 0 -x {0.0 3.0 23 ------- null}
h -t 0.028896 -s 0 -d 2 -p tcp -e 1040 -c 0 -i 37 -a 0 -x {0.0 3.0 -1 ------- null}
r -t 0.029064 -s 0 -d 2 -p tcp -e 1040 -c 0 -i 34 -a 0 -x {0.0 3.0 21 ------- null}
+ -t 0.029064 -s 2 -d 3 -p tcp -e 1040 -c 0 -i 34 -a 0 -x {0.0 3.0 21 ------- null}
- -t 0.029064 -s 2 -d 3 -p tcp -e 1040 -c 0 -i 34 -a 0 -x {0.0 3.0 21 ------- null}
h -t 0.029064 -s 2 -d 3 -p tcp -e 1040 -c 0 -i 34 -a 0 -x {0.0 3.0 -1 ------- null}
r -t 0.029232 -s 2 -d 3 -p tcp -e 1040 -c 0 -i 31 -a 0 -x {0.0 3.0 19 ------- null}
+ -t 0.029232 -s 3 -d 2 -p ack -e 40 -c 0 -i 54 -a 0 -x {3.0 0.0 19 ------- null}
- -t 0.029232 -s 3 -d 2 -p ack -e 40 -c 0 -i 54 -a 0 -x {3.0 0.0 19 ------- null}
h -t 0.029232 -s 3 -d 2 -p ack -e 40 -c 0 -i 54 -a 0 -x {3.0 0.0 -1 ------- null}
r -t 0.029432 -s 3 -d 2 -p ack -e 40 -c 0 -i 51 -a 0 -x {3.0 0.0 18 ------- null}
+ -t 0.029432 -s 2 -d 0 -p ack -e 40 -c 0 -i 51 -a 0 -x {3.0 0.0 18 ------- null}
- -t 0.029432 -s 2 -d 0 -p ack -e 40 -c 0 -i 51 -a 0 -x {3.0 0.0 18 ------- null}
h -t 0.029432 -s 2 -d 0 -p ack -e 40 -c 0 -i 51 -a 0 -x {3.0 0.0 -1 ------- null}
r -t 0.029632 -s 2 -d 0 -p ack -e 40 -c 0 -i 48 -a 0 -x {3.0 0.0 17 ------- null}
+ -t 0.029632 -s 0 -d 2 -p tcp -e 1040 -c 0 -i 55 -a 0 -x {0.0 3.0 35 ------- null}
+ -t 0.029632 -s 0 -d 2 -p tcp -e 1040 -c 0 -i 56 -a 0 -x {0.0 3.0 36 ------- null}
d -t 0.029632 -s 0 -d 2 -p tcp -e 1040 -c 0 -i 56 -a 0 -x {0.0 3.0 36 ------- null}
- -t 0.029728 -s 0 -d 2 -p tcp -e 1040 -c 0 -i 38 -a 0 -x {0.0 3.0 24 ------- null}
h -t 0.029728 -s 0 -d 2 -p tcp -e 1040 -c 0 -i 38 -a 0 -x {0.0 3.0 -1 ------- null}
r -t 0.029896 -s 0 -d 2 -p tcp -e 1040 -c 0 -i 35 -a 0 -x {0.0 3.0 22 ------- null}
+ -t 0.029896 -s 2 -d 3 -p tcp -e 1040 -c 0 -i 35 -a 0 -x {0.0 3.0 22 ------- null}
- -t 0.029896 -s 2 -d 3 -p tcp -e 1040 -c 0 -i 35 -a 0 -x {0.0 3.0 22 ------- null}
h -t 0.029896 -s 2 -d 3 -p tcp -e 1040 -c 0 -i 35 -a 0 -x {0.0 3.0 -1 ------- null}
r -t 0.030064 -s 2 -d 3 -p tcp -e 1040 -c 0 -i 32 -a 0 -x {0.0 3.0 20 ------- null}
+ -t 0.030064 -s 3 -d 2 -p ack -e 40 -c 0 -i 57 -a 0 -x {3.0 0.0 20 ------- null}