+ 0 0 2 tcp 40 ------- 0 0.0 3.0 0 0
- 0 0 2 tcp 40 ------- 0 0.0 3.0 0 0
r 0.001032 0 2 tcp 40 ------- 0 0.0 3.0 0 0
+ 0.001032 2 3 tcp 40 ------- 0 0.0 3.0 0 0
- 0.001032 2 3 tcp 40 ------- 0 0.0 3.0 0 0
r 0.002064 2 3 tcp 40 ------- 0 0.0 3.0 0 0
+ 0.002064 3 2 ack 40 ------- 0 3.0 0.0 0 1
- 0.002064 3 2 ack 40 ------- 0 3.0 0.0 0 1
r 0.003096 3 2 ack 40 ------- 0 3.0 0.0 0 1
+ 0.003096 2 0 ack 40 ------- 0 3.0 0.0 0 1
- 0.003096 2 0 ack 40 ------- 0 3.0 0.0 0 1
r 0.004128 2 0 ack 40 ------- 0 3.0 0.0 0 1
+ 0.004128 0 2 tcp 1040 ------- 0 0.0 3.0 1 2
- 0.004128 0 2 tcp 1040 ------- 0 0.0 3.0 1 2
+ 0.004128 0 2 tcp 1040 ------- 0 0.0 3.0 2 3
- 0.00496 0 2 tcp 1040 ------- 0 0.0 3.0 2 3
r 0.00596 0 2 tcp 1040 ------- 0 0.0 3.0 1 2
+ 0.00596 2 3 tcp 1040 ------- 0 0.0 3.0 1 2
- 0.00596 2 3 tcp 1040 ------- 0 0.0 3.0 1 2
r 0.006792 0 2 tcp 1040 ------- 0 0.0 3.0 2 3
+ 0.006792 2 3 tcp 1040 ------- 0 0.0 3.0 2 3
- 0.006792 2 3 tcp 1040 ------- 0 0.0 3.0 2 3
r 0.007792 2 3 tcp 1040 ------- 0 0.0 3.0 1 2
+ 0.007792 3 2 ack 40 ------- 0 3.0 0.0 1 4
- 0.007792 3 2 ack 40 ------- 0 3.0 0.0 1 4
r 0.008624 2 3 tcp 1040 ------- 0 0.0 3.0 2 3
+ 0.008624 3 2 ack 40 ------- 0 3.0 0.0 2 5
- 0.008624 3 2 ack 40 ------- 0 3.0 0.0 2 5
r 0.008824 3 2 ack 40 ------- 0 3.0 0.0 1 4
+ 0.008824 2 0 ack 40 ------- 0 3.0 0.0 1 4
- 0.008824 2 0 ack 40 ------- 0 3.0 0.0 1 4
r 0.009656 3 2 ack 40 ------- 0 3.0 0.0 2 5
+ 0.009656 2 0 ack 40 ------- 0 3.0 0.0 2 5
- 0.009656 2 0 ack 40 ------- 0 3.0 0.0 2 5
r 0.009856 2 0 ack 40 ------- 0 3.0 0.0 1 4
+ 0.009856 0 2 tcp 1040 ------- 0 0.0 3.0 3 6
- 0.009856 0 2 tcp 1040 ------- 0 0.0 3.0 3 6
+ 0.009856 0 2 tcp 1040 ------- 0 0.0 3.0 4 7
r 0.010688 2 0 ack 40 ------- 0 3.0 0.0 2 5
+ 0.010688 0 2 tcp 1040 ------- 0 0.0 3.0 5 8
+ 0.010688 0 2 tcp 1040 ------- 0 0.0 3.0 6 9
- 0.010688 0 2 tcp 1040 ------- 0 0.0 3.0 4 7
- 0.01152 0 2 tcp 1040 ------- 0 0.0 3.0 5 8
r 0.011688 0 2 tcp 1040 ------- 0 0.0 3.0 3 6
+ 0.011688 2 3 tcp 1040 ------- 0 0.0 3.0 3 6
- 0.011688 2 3 tcp 1040 ------- 0 0.0 3.0 3 6
- 0.012352 0 2 tcp 1040 ------- 0 0.0 3.0 6 9
r 0.01252 0 2 tcp 1040 ------- 0 0.0 3.0 4 7
+ 0.01252 2 3 tcp 1040 ------- 0 0.0 3.0 4 7
- 0.01252 2 3 tcp 1040 ------- 0 0.0 3.0 4 7
r 0.013352 0 2 tcp 1040 ------- 0 0.0 3.0 5 8
+ 0.013352 2 3 tcp 1040 ------- 0 0.0 3.0 5 8
- 0.013352 2 3 tcp 1040 ------- 0 0.0 3.0 5 8
r 0.01352 2 3 tcp 1040 ------- 0 0.0 3.0 3 6
+ 0.01352 3 2 ack 40 ------- 0 3.0 0.0 3 10
- 0.01352 3 2 ack 40 ------- 0 3.0 0.0 3 10
r 0.014184 0 2 tcp 1040 ------- 0 0.0 3.0 6 9
+ 0.014184 2 3 tcp 1040 ------- 0 0.0 3.0 6 9
- 0.014184 2 3 tcp 1040 ------- 0 0.0 3.0 6 9
r 0.014352 2 3 tcp 1040 ------- 0 0.0 3.0 4 7
+ 0.014352 3 2 ack 40 ------- 0 3.0 0.0 4 11
- 0.014352 3 2 ack 40 ------- 0 3.0 0.0 4 11
r 0.014552 3 2 ack 40 ------- 0 3.0 0.0 3 10
+ 0.014552 2 0 ack 40 ------- 0 3.0 0.0 3 10
- 0.014552 2 0 ack 40 ------- 0 3.0 0.0 3 10
r 0.015184 2 3 tcp 1040 ------- 0 0.0 3.0 5 8
+ 0.015184 3 2 ack 40 ------- 0 3.0 0.0 5 12
- 0.015184 3 2 ack 40 ------- 0 3.0 0.0 5 12
r 0.015384 3 2 ack 40 ------- 0 3.0 0.0 4 11
+ 0.015384 2 0 ack 40 ------- 0 3.0 0.0 4 11
- 0.015384 2 0 ack 40 ------- 0 3.0 0.0 4 11
r 0.015584 2 0 ack 40 ------- 0 3.0 0.0 3 10
+ 0.015584 0 2 tcp 1040 ------- 0 0.0 3.0 7 13
- 0.015584 0 2 tcp 1040 ------- 0 0.0 3.0 7 13
+ 0.015584 0 2 tcp 1040 ------- 0 0.0 3.0 8 14
r 0.016016 2 3 tcp 1040 ------- 0 0.0 3.0 6 9
+ 0.016016 3 2 ack 40 ------- 0 3.0 0.0 6 15
- 0.016016 3 2 ack 40 ------- 0 3.0 0.0 6 15
r 0.016216 3 2 ack 40 ------- 0 3.0 0.0 5 12
+ 0.016216 2 0 ack 40 ------- 0 3.0 0.0 5 12
- 0.016216 2 0 ack 40 ------- 0 3.0 0.0 5 12
r 0.016416 2 0 ack 40 ------- 0 3.0 0.0 4 11
+ 0.016416 0 2 tcp 1040 ------- 0 0.0 3.0 9 16
+ 0.016416 0 2 tcp 1040 ------- 0 0.0 3.0 10 17
- 0.016416 0 2 tcp 1040 ------- 0 0.0 3.0 8 14
r 0.017048 3 2 ack 40 ------- 0 3.0 0.0 6 15
+ 0.017048 2 0 ack 40 ------- 0 3.0 0.0 6 15
- 0.017048 2 0 ack 40 ------- 0 3.0 0.0 6 15
r 0.017248 2 0 ack 40 ------- 0 3.0 0.0 5 12
+ 0.017248 0 2 tcp 1040 ------- 0 0.0 3.0 11 18
+ 0.017248 0 2 tcp 1040 ------- 0 0.0 3.0 12 19
- 0.017248 0 2 tcp 1040 ------- 0 0.0 3.0 9 16
r 0.017416 0 2 tcp 1040 ------- 0 0.0 3.0 7 13
+ 0.017416 2 3 tcp 1040 ------- 0 0.0 3.0 7 13
- 0.017416 2 3 tcp 1040 ------- 0 0.0 3.0 7 13
r 0.01808 2 0 ack 40 ------- 0 3.0 0.0 6 15
+ 0.01808 0 2 tcp 1040 ------- 0 0.0 3.0 13 20
+ 0.01808 0 2 tcp 1040 ------- 0 0.0 3.0 14 21
- 0.01808 0 2 tcp 1040 ------- 0 0.0 3.0 10 17
r 0.018248 0 2 tcp 1040 ------- 0 0.0 3.0 8 14
+ 0.018248 2 3 tcp 1040 ------- 0 0.0 3.0 8 14
- 0.018248 2 3 tcp 1040 ------- 0 0.0 3.0 8 14
- 0.018912 0 2 tcp 1040 ------- 0 0.0 3.0 11 18
r 0.01908 0 2 tcp 1040 ------- 0 0.0 3.0 9 16
+ 0.01908 2 3 tcp 1040 ------- 0 0.0 3.0 9 16
- 0.01908 2 3 tcp 1040 ------- 0 0.0 3.0 9 16
r 0.019248 2 3 tcp 1040 ------- 0 0.0 3.0 7 13
+ 0.019248 3 2 ack 40 ------- 0 3.0 0.0 7 22
- 0.019248 3 2 ack 40 ------- 0 3.0 0.0 7 22
- 0.019744 0 2 tcp 1040 ------- 0 0.0 3.0 12 19
r 0.019912 0 2 tcp 1040 ------- 0 0.0 3.0 10 17
+ 0.019912 2 3 tcp 1040 ------- 0 0.0 3.0 10 17
- 0.019912 2 3 tcp 1040 ------- 0 0.0 3.0 10 17
r 0.02008 2 3 tcp 1040 ------- 0 0.0 3.0 8 14
+ 0.02008 3 2 ack 40 ------- 0 3.0 0.0 8 23
- 0.02008 3 2 ack 40 ------- 0 3.0 0.0 8 23
r 0.02028 3 2 ack 40 ------- 0 3.0 0.0 7 22
+ 0.02028 2 0 ack 40 ------- 0 3.0 0.0 7 22
- 0.02028 2 0 ack 40 ------- 0 3.0 0.0 7 22
- 0.020576 0 2 tcp 1040 ------- 0 0.0 3.0 13 20
r 0.020744 0 2 tcp 1040 ------- 0 0.0 3.0 11 18
+ 0.020744 2 3 tcp 1040 ------- 0 0.0 3.0 11 18
- 0.020744 2 3 tcp 1040 ------- 0 0.0 3.0 11 18
r 0.020912 2 3 tcp 1040 ------- 0 0.0 3.0 9 16
+ 0.020912 3 2 ack 40 ------- 0 3.0 0.0 9 24
- 0.020912 3 2 ack 40 ------- 0 3.0 0.0 9 24
r 0.021112 3 2 ack 40 ------- 0 3.0 0.0 8 23
+ 0.021112 2 0 ack 40 ------- 0 3.0 0.0 8 23
- 0.021112 2 0 ack 40 ------- 0 3.0 0.0 8 23
r 0.021312 2 0 ack 40 ------- 0 3.0 0.0 7 22
+ 0.021312 0 2 tcp 1040 ------- 0 0.0 3.0 15 25
+ 0.021312 0 2 tcp 1040 ------- 0 0.0 3.0 16 26
- 0.021408 0 2 tcp 1040 ------- 0 0.0 3.0 14 21
r 0.021576 0 2 tcp 1040 ------- 0 0.0 3.0 12 19
+ 0.021576 2 3 tcp 1040 ------- 0 0.0 3.0 12 19
- 0.021576 2 3 tcp 1040 ------- 0 0.0 3.0 12 19
r 0.021744 2 3 tcp 1040 ------- 0 0.0 3.0 10 17
+ 0.021744 3 2 ack 40 ------- 0 3.0 0.0 10 27
- 0.021744 3 2 ack 40 ------- 0 3.0 0.0 10 27
r 0.021944 3 2 ack 40 ------- 0 3.0 0.0 9 24
+ 0.021944 2 0 ack 40 ------- 0 3.0 0.0 9 24
- 0.021944 2 0 ack 40 ------- 0 3.0 0.0 9 24
r 0.022144 2 0 ack 40 ------- 0 3.0 0.0 8 23
+ 0.022144 0 2 tcp 1040 ------- 0 0.0 3.0 17 28
+ 0.022144 0 2 tcp 1040 ------- 0 0.0 3.0 18 29
- 0.02224 0 2 tcp 1040 ------- 0 0.0 3.0 15 25
r 0.022408 0 2 tcp 1040 ------- 0 0.0 3.0 13 20
+ 0.022408 2 3 tcp 1040 ------- 0 0.0 3.0 13 20
- 0.022408 2 3 tcp 1040 ------- 0 0.0 3.0 13 20
r 0.022576 2 3 tcp 1040 ------- 0 0.0 3.0 11 18
+ 0.022576 3 2 ack 40 ------- 0 3.0 0.0 11 30
- 0.022576 3 2 ack 40 ------- 0 3.0 0.0 11 30
r 0.022776 3 2 ack 40 ------- 0 3.0 0.0 10 27
+ 0.022776 2 0 ack 40 ------- 0 3.0 0.0 10 27
- 0.022776 2 0 ack 40 ------- 0 3.0 0.0 10 27
r 0.022976 2 0 ack 40 ------- 0 3.0 0.0 9 24
+ 0.022976 0 2 tcp 1040 ------- 0 0.0 3.0 19 31
+ 0.022976 0 2 tcp 1040 ------- 0 0.0 3.0 20 32
- 0.023072 0 2 tcp 1040 ------- 0 0.0 3.0 16 26
r 0.02324 0 2 tcp 1040 ------- 0 0.0 3.0 14 21
+ 0.02324 2 3 tcp 1040 ------- 0 0.0 3.0 14 21
- 0.02324 2 3 tcp 1040 ------- 0 0.0 3.0 14 21
r 0.023408 2 3 tcp 1040 ------- 0 0.0 3.0 12 19
+ 0.023408 3 2 ack 40 ------- 0 3.0 0.0 12 33
- 0.023408 3 2 ack 40 ------- 0 3.0 0.0 12 33
r 0.023608 3 2 ack 40 ------- 0 3.0 0.0 11 30
+ 0.023608 2 0 ack 40 ------- 0 3.0 0.0 11 30
- 0.023608 2 0 ack 40 ------- 0 3.0 0.0 11 30
r 0.023808 2 0 ack 40 ------- 0 3.0 0.0 10 27
+ 0.023808 0 2 tcp 1040 ------- 0 0.0 3.0 21 34
+ 0.023808 0 2 tcp 1040 ------- 0 0.0 3.0 22 35
- 0.023904 0 2 tcp 1040 ------- 0 0.0 3.0 17 28
r 0.024072 0 2 tcp 1040 ------- 0 0.0 3.0 15 25
+ 0.024072 2 3 tcp 1040 ------- 0 0.0 3.0 15 25
- 0.024072 2 3 tcp 1040 ------- 0 0.0 3.0 15 25
r 0.02424 2 3 tcp 1040 ------- 0 0.0 3.0 13 20
+ 0.02424 3 2 ack 40 ------- 0 3.0 0.0 13 36
- 0.02424 3 2 ack 40 ------- 0 3.0 0.0 13 36
r 0.02444 3 2 ack 40 ------- 0 3.0 0.0 12 33
+ 0.02444 2 0 ack 40 ------- 0 3.0 0.0 12 33
- 0.02444 2 0 ack 40 ------- 0 3.0 0.0 12 33
r 0.02464 2 0 ack 40 ------- 0 3.0 0.0 11 30
+ 0.02464 0 2 tcp 1040 ------- 0 0.0 3.0 23 37
+ 0.02464 0 2 tcp 1040 ------- 0 0.0 3.0 24 38
- 0.024736 0 2 tcp 1040 ------- 0 0.0 3.0 18 29
r 0.024904 0 2 tcp 1040 ------- 0 0.0 3.0 16 26
+ 0.024904 2 3 tcp 1040 ------- 0 0.0 3.0 16 26
- 0.024904 2 3 tcp 1040 ------- 0 0.0 3.0 16 26
r 0.025072 2 3 tcp 1040 ------- 0 0.0 3.0 14 21
+ 0.025072 3 2 ack 40 ------- 0 3.0 0.0 14 39
- 0.025072 3 2 ack 40 ------- 0 3.0 0.0 14 39
r 0.025272 3 2 ack 40 ------- 0 3.0 0.0 13 36
+ 0.025272 2 0 ack 40 ------- 0 3.0 0.0 13 36
- 0.025272 2 0 ack 40 ------- 0 3.0 0.0 13 36
r 0.025472 2 0 ack 40 ------- 0 3.0 0.0 12 33
+ 0.025472 0 2 tcp 1040 ------- 0 0.0 3.0 25 40
+ 0.025472 0 2 tcp 1040 ------- 0 0.0 3.0 26 41
- 0.025568 0 2 tcp 1040 ------- 0 0.0 3.0 19 31
r 0.025736 0 2 tcp 1040 ------- 0 0.0 3.0 17 28
+ 0.025736 2 3 tcp 1040 ------- 0 0.0 3.0 17 28
- 0.025736 2 3 tcp 1040 ------- 0 0.0 3.0 17 28
r 0.025904 2 3 tcp 1040 ------- 0 0.0 3.0 15 25
+ 0.025904 3 2 ack 40 ------- 0 3.0 0.0 15 42
- 0.025904 3 2 ack 40 ------- 0 3.0 0.0 15 42
r 0.026104 3 2 ack 40 ------- 0 3.0 0.0 14 39
+ 0.026104 2 0 ack 40 ------- 0 3.0 0.0 14 39
- 0.026104 2 0 ack 40 ------- 0 3.0 0.0 14 39
r 0.026304 2 0 ack 40 ------- 0 3.0 0.0 13 36
+ 0.026304 0 2 tcp 1040 ------- 0 0.0 3.0 27 43
+ 0.026304 0 2 tcp 1040 ------- 0 0.0 3.0 28 44
- 0.0264 0 2 tcp 1040 ------- 0 0.0 3.0 20 32
r 0.026568 0 2 tcp 1040 ------- 0 0.0 3.0 18 29
+ 0.026568 2 3 tcp 1040 ------- 0 0.0 3.0 18 29
- 0.026568 2 3 tcp 1040 ------- 0 0.0 3.0 18 29
r 0.026736 2 3 tcp 1040 ------- 0 0.0 3.0 16 26
+ 0.026736 3 2 ack 40 ------- 0 3.0 0.0 16 45
- 0.026736 3 2 ack 40 ------- 0 3.0 0.0 16 45
r 0.026936 3 2 ack 40 ------- 0 3.0 0.0 15 42
+ 0.026936 2 0 ack 40 ------- 0 3.0 0.0 15 42
- 0.026936 2 0 ack 40 ------- 0 3.0 0.0 15 42
r 0.027136 2 0 ack 40 ------- 0 3.0 0.0 14 39
+ 0.027136 0 2 tcp 1040 ------- 0 0.0 3.0 29 46
+ 0.027136 0 2 tcp 1040 ------- 0 0.0 3.0 30 47
d 0.027136 0 2 tcp 1040 ------- 0 0.0 3.0 30 47
- 0.027232 0 2 tcp 1040 ------- 0 0.0 3.0 21 34
r 0.0274 0 2 tcp 1040 ------- 0 0.0 3.0 19 31
+ 0.0274 2 3 tcp 1040 ------- 0 0.0 3.0 19 31
- 0.0274 2 3 tcp 1040 ------- 0 0.0 3.0 19 31
r 0.027568 2 3 tcp 1040 ------- 0 0.0 3.0 17 28
+ 0.027568 3 2 ack 40 ------- 0 3.0 0.0 17 48
- 0.027568 3 2 ack 40 ------- 0 3.0 0.0 17 48
r 0.027768 3 2 ack 40 ------- 0 3.0 0.0 16 45
+ 0.027768 2 0 ack 40 ------- 0 3.0 0.0 16 45
- 0.027768 2 0 ack 40 ------- 0 3.0 0.0 16 45
r 0.027968 2 0 ack 40 ------- 0 3.0 0.0 15 42
+ 0.027968 0 2 tcp 1040 ------- 0 0.0 3.0 31 49
+ 0.027968 0 2 tcp 1040 ------- 0 0.0 3.0 32 50
d 0.027968 0 2 tcp 1040 ------- 0 0.0 3.0 32 50
- 0.028064 0 2 tcp 1040 ------- 0 0.0 3.0 22 35
r 0.028232 0 2 tcp 1040 ------- 0 0.0 3.0 20 32
+ 0.028232 2 3 tcp 1040 ------- 0 0.0 3.0 20 32
- 0.028232 2 3 tcp 1040 ------- 0 0.0 3.0 20 32
r 0.0284 2 3 tcp 1040 ------- 0 0.0 3.0 18 29
+ 0.0284 3 2 ack 40 ------- 0 3.0 0.0 18 51
- 0.0284 3 2 ack 40 ------- 0 3.0 0.0 18 51
r 0.0286 3 2 ack 40 ------- 0 3.0 0.0 17 48
+ 0.0286 2 0 ack 40 ------- 0 3.0 0.0 17 48
- 0.0286 2 0 ack 40 ------- 0 3.0 0.0 17 48
r 0.0288 2 0 ack 40 ------- 0 3.0 0.0 16 45
+ 0.0288 0 2 tcp 1040 ------- 0 0.0 3.0 33 52
+ 0.0288 0 2 tcp 1040 ------- 0 0.0 3.0 34 53
d 0.0288 0 2 tcp 1040 ------- 0 0.0 3.0 34 53
- 0.028896 0 2 tcp 1040 ------- 0 0.0 3.0 23 37
r 0.029064 0 2 tcp 1040 ------- 0 0.0 3.0 21 34
+ 0.029064 2 3 tcp 1040 ------- 0 0.0 3.0 21 34
- 0.029064 2 3 tcp 1040 ------- 0 0.0 3.0 21 34
r 0.029232 2 3 tcp 1040 ------- 0 0.0 3.0 19 31
+ 0.029232 3 2 ack 40 ------- 0 3.0 0.0 19 54
- 0.029232 3 2 ack 40 ------- 0 3.0 0.0 19 54
r 0.029432 3 2 ack 40 ------- 0 3.0 0.0 18 51
+ 0.029432 2 0 ack 40 ------- 0 3.0 0.0 18 51
- 0.029432 2 0 ack 40 ------- 0 3.0 0.0 18 51
r 0.029632 2 0 ack 40 ------- 0 3.0 0.0 17 48
+ 0.029632 0 2 tcp 1040 ------- 0 0.0 3.0 35 55
+ 0.029632 0 2 tcp 1040 ------- 0 0.0 3.0 36 56
d 0.029632 0 2 tcp 1040 ------- 0 0.0 3.0 36 56
- 0.029728 0 2 tcp 1040 ------- 0 0.0 3.0 24 38
r 0.029896 0 2 tcp 1040 ------- 0 0.0 3.0 22 35
+ 0.029896 2 3 tcp 1040 ------- 0 0.0 3.0 22 35
- 0.029896 2 3 tcp 1040 ------- 0 0.0 3.0 22 35
r 0.030064 2 3 tcp 1040 ------- 0 0.0 3.0 20 32
+ 0.030064 3 2 ack 40 ------- 0 3.0 0.0 20 57
- 0.030064 3 2 ack 40 ------- 0 3.0 0.0 20 57
r 0.030264 3 2 ack 40 ------- 0 3.0 0.0 19 54
+ 0.030264 2 0 ack 40 ------- 0 3.0 0.0 19 54
- 0.030264 2 0 ack 40 ------- 0 3.0 0.0 19 54
r 0.030464 2 0 ack 40 ------- 0 3.0 0.0 18 51
+ 0.030464 0 2 tcp 1040 ------- 0 0.0 3.0 37 58
+ 0.030464 0 2 tcp 1040 ------- 0 0.0 3.0 38 59
d 0.030464 0 2 tcp 1040 ------- 0 0.0 3.0 38 59
- 0.03056 0 2 tcp 1040 ------- 0 0.0 3.0 25 40
r 0.030728 0 2 tcp 1040 ------- 0 0.0 3.0 23 37
+ 0.030728 2 3 tcp 1040 ------- 0 0.0 3.0 23 37
- 0.030728 2 3 tcp 1040 ------- 0 0.0 3.0 23 37
r 0.030896 2 3 tcp 1040 ------- 0 0.0 3.0 21 34
+ 0.030896 3 2 ack 40 ------- 0 3.0 0.0 21 60
- 0.030896 3 2 ack 40 ------- 0 3.0 0.0 21 60
r 0.031096 3 2 ack 40 ------- 0 3.0 0.0 20 57
+ 0.031096 2 0 ack 40 ------- 0 3.0 0.0 20 57
- 0.031096 2 0 ack 40 ------- 0 3.0 0.0 20 57
r 0.031296 2 0 ack 40 ------- 0 3.0 0.0 19 54
+ 0.031296 0 2 tcp 1040 ------- 0 0.0 3.0 39 61
- 0.031392 0 2 tcp 1040 ------- 0 0.0 3.0 26 41
r 0.03156 0 2 tcp 1040 ------- 0 0.0 3.0 24 38
+ 0.03156 2 3 tcp 1040 ------- 0 0.0 3.0 24 38
- 0.03156 2 3 tcp 1040 ------- 0 0.0 3.0 24 38
r 0.031728 2 3 tcp 1040 ------- 0 0.0 3.0 22 35
+ 0.031728 3 2 ack 40 ------- 0 3.0 0.0 22 62
- 0.031728 3 2 ack 40 ------- 0 3.0 0.0 22 62
r 0.031928 3 2 ack 40 ------- 0 3.0 0.0 21 60
+ 0.031928 2 0 ack 40 ------- 0 3.0 0.0 21 60
- 0.031928 2 0 ack 40 ------- 0 3.0 0.0 21 60
r 0.032128 2 0 ack 40 ------- 0 3.0 0.0 20 57
+ 0.032128 0 2 tcp 1040 ------- 0 0.0 3.0 40 63
- 0.032224 0 2 tcp 1040 ------- 0 0.0 3.0 27 43
r 0.032392 0 2 tcp 1040 ------- 0 0.0 3.0 25 40
+ 0.032392 2 3 tcp 1040 ------- 0 0.0 3.0 25 40
- 0.032392 2 3 tcp 1040 ------- 0 0.0 3.0 25 40
r 0.03256 2 3 tcp 1040 ------- 0 0.0 3.0 23 37
+ 0.03256 3 2 ack 40 ------- 0 3.0 0.0 23 64
- 0.03256 3 2 ack 40 ------- 0 3.0 0.0 23 64
r 0.03276 3 2 ack 40 ------- 0 3.0 0.0 22 62
+ 0.03276 2 0 ack 40 ------- 0 3.0 0.0 22 62
- 0.03276 2 0 ack 40 ------- 0 3.0 0.0 22 62
r 0.03296 2 0 ack 40 ------- 0 3.0 0.0 21 60
+ 0.03296 0 2 tcp 1040 ------- 0 0.0 3.0 41 65
- 0.033056 0 2 tcp 1040 ------- 0 0.0 3.0 28 44
r 0.033224 0 2 tcp 1040 ------- 0 0.0 3.0 26 41
+ 0.033224 2 3 tcp 1040 ------- 0 0.0 3.0 26 41
- 0.033224 2 3 tcp 1040 ------- 0 0.0 3.0 26 41
r 0.033392 2 3 tcp 1040 ------- 0 0.0 3.0 24 38
+ 0.033392 3 2 ack 40 ------- 0 3.0 0.0 24 66
- 0.033392 3 2 ack 40 ------- 0 3.0 0.0 24 66
r 0.033592 3 2 ack 40 ------- 0 3.0 0.0 23 64
+ 0.033592 2 0 ack 40 ------- 0 3.0 0.0 23 64
- 0.033592 2 0 ack 40 ------- 0 3.0 0.0 23 64
r 0.033792 2 0 ack 40 ------- 0 3.0 0.0 22 62
+ 0.033792 0 2 tcp 1040 ------- 0 0.0 3.0 42 67
- 0.033888 0 2 tcp 1040 ------- 0 0.0 3.0 29 46
r 0.034056 0 2 tcp 1040 ------- 0 0.0 3.0 27 43
+ 0.034056 2 3 tcp 1040 ------- 0 0.0 3.0 27 43
- 0.034056 2 3 tcp 1040 ------- 0 0.0 3.0 27 43
r 0.034224 2 3 tcp 1040 ------- 0 0.0 3.0 25 40
+ 0.034224 3 2 ack 40 ------- 0 3.0 0.0 25 68
- 0.034224 3 2 ack 40 ------- 0 3.0 0.0 25 68
r 0.034424 3 2 ack 40 ------- 0 3.0 0.0 24 66
+ 0.034424 2 0 ack 40 ------- 0 3.0 0.0 24 66
- 0.034424 2 0 ack 40 ------- 0 3.0 0.0 24 66
r 0.034624 2 0 ack 40 ------- 0 3.0 0.0 23 64
+ 0.034624 0 2 tcp 1040 ------- 0 0.0 3.0 43 69
- 0.03472 0 2 tcp 1040 ------- 0 0.0 3.0 31 49
r 0.034888 0 2 tcp 1040 ------- 0 0.0 3.0 28 44
+ 0.034888 2 3 tcp 1040 ------- 0 0.0 3.0 28 44
- 0.034888 2 3 tcp 1040 ------- 0 0.0 3.0 28 44
r 0.035056 2 3 tcp 1040 ------- 0 0.0 3.0 26 41
+ 0.035056 3 2 ack 40 ------- 0 3.0 0.0 26 70
- 0.035056 3 2 ack 40 ------- 0 3.0 0.0 26 70
r 0.035256 3 2 ack 40 ------- 0 3.0 0.0 25 68
+ 0.035256 2 0 ack 40 ------- 0 3.0 0.0 25 68
- 0.035256 2 0 ack 40 ------- 0 3.0 0.0 25 68
r 0.035456 2 0 ack 40 ------- 0 3.0 0.0 24 66
+ 0.035456 0 2 tcp 1040 ------- 0 0.0 3.0 44 71
- 0.035552 0 2 tcp 1040 ------- 0 0.0 3.0 33 52
r 0.03572 0 2 tcp 1040 ------- 0 0.0 3.0 29 46
+ 0.03572 2 3 tcp 1040 ------- 0 0.0 3.0 29 46
- 0.03572 2 3 tcp 1040 ------- 0 0.0 3.0 29 46
r 0.035888 2 3 tcp 1040 ------- 0 0.0 3.0 27 43
+ 0.035888 3 2 ack 40 ------- 0 3.0 0.0 27 72
- 0.035888 3 2 ack 40 ------- 0 3.0 0.0 27 72
r 0.036088 3 2 ack 40 ------- 0 3.0 0.0 26 70
+ 0.036088 2 0 ack 40 ------- 0 3.0 0.0 26 70
- 0.036088 2 0 ack 40 ------- 0 3.0 0.0 26 70
r 0.036288 2 0 ack 40 ------- 0 3.0 0.0 25 68
+ 0.036288 0 2 tcp 1040 ------- 0 0.0 3.0 45 73
- 0.036384 0 2 tcp 1040 ------- 0 0.0 3.0 35 55
r 0.036552 0 2 tcp 1040 ------- 0 0.0 3.0 31 49
+ 0.036552 2 3 tcp 1040 ------- 0 0.0 3.0 31 49
- 0.036552 2 3 tcp 1040 ------- 0 0.0 3.0 31 49
r 0.03672 2 3 tcp 1040 ------- 0 0.0 3.0 28 44
+ 0.03672 3 2 ack 40 ------- 0 3.0 0.0 28 74
- 0.03672 3 2 ack 40 ------- 0 3.0 0.0 28 74
r 0.03692 3 2 ack 40 ------- 0 3.0 0.0 27 72
+ 0.03692 2 0 ack 40 ------- 0 3.0 0.0 27 72
- 0.03692 2 0 ack 40 ------- 0 3.0 0.0 27 72
r 0.03712 2 0 ack 40 ------- 0 3.0 0.0 26 70
+ 0.03712 0 2 tcp 1040 ------- 0 0.0 3.0 46 75
- 0.037216 0 2 tcp 1040 ------- 0 0.0 3.0 37 58
r 0.037384 0 2 tcp 1040 ------- 0 0.0 3.0 33 52
+ 0.037384 2 3 tcp 1040 ------- 0 0.0 3.0 33 52
- 0.037384 2 3 tcp 1040 ------- 0 0.0 3.0 33 52
r 0.037552 2 3 tcp 1040 ------- 0 0.0 3.0 29 46
+ 0.037552 3 2 ack 40 ------- 0 3.0 0.0 29 76
- 0.037552 3 2 ack 40 ------- 0 3.0 0.0 29 76
r 0.037752 3 2 ack 40 ------- 0 3.0 0.0 28 74
+ 0.037752 2 0 ack 40 ------- 0 3.0 0.0 28 74
- 0.037752 2 0 ack 40 ------- 0 3.0 0.0 28 74
r 0.037952 2 0 ack 40 ------- 0 3.0 0.0 27 72
+ 0.037952 0 2 tcp 1040 ------- 0 0.0 3.0 47 77
- 0.038048 0 2 tcp 1040 ------- 0 0.0 3.0 39 61
r 0.038216 0 2 tcp 1040 ------- 0 0.0 3.0 35 55
+ 0.038216 2 3 tcp 1040 ------- 0 0.0 3.0 35 55
- 0.038216 2 3 tcp 1040 ------- 0 0.0 3.0 35 55
r 0.038384 2 3 tcp 1040 ------- 0 0.0 3.0 31 49
+ 0.038384 3 2 ack 40 ------- 0 3.0 0.0 29 78
- 0.038384 3 2 ack 40 ------- 0 3.0 0.0 29 78
r 0.038584 3 2 ack 40 ------- 0 3.0 0.0 29 76
+ 0.038584 2 0 ack 40 ------- 0 3.0 0.0 29 76
- 0.038584 2 0 ack 40 ------- 0 3.0 0.0 29 76
r 0.038784 2 0 ack 40 ------- 0 3.0 0.0 28 74
+ 0.038784 0 2 tcp 1040 ------- 0 0.0 3.0 48 79
- 0.03888 0 2 tcp 1040 ------- 0 0.0 3.0 40 63
r 0.039048 0 2 tcp 1040 ------- 0 0.0 3.0 37 58
+ 0.039048 2 3 tcp 1040 ------- 0 0.0 3.0 37 58
- 0.039048 2 3 tcp 1040 ------- 0 0.0 3.0 37 58
r 0.039216 2 3 tcp 1040 ------- 0 0.0 3.0 33 52
+ 0.039216 3 2 ack 40 ------- 0 3.0 0.0 29 80
- 0.039216 3 2 ack 40 ------- 0 3.0 0.0 29 80
r 0.039416 3 2 ack 40 ------- 0 3.0 0.0 29 78
+ 0.039416 2 0 ack 40 ------- 0 3.0 0.0 29 78
- 0.039416 2 0 ack 40 ------- 0 3.0 0.0 29 78
r 0.039616 2 0 ack 40 ------- 0 3.0 0.0 29 76
+ 0.039616 0 2 tcp 1040 ------- 0 0.0 3.0 49 81
- 0.039712 0 2 tcp 1040 ------- 0 0.0 3.0 41 65
r 0.03988 0 2 tcp 1040 ------- 0 0.0 3.0 39 61
+ 0.03988 2 3 tcp 1040 ------- 0 0.0 3.0 39 61
- 0.03988 2 3 tcp 1040 ------- 0 0.0 3.0 39 61
r 0.040048 2 3 tcp 1040 ------- 0 0.0 3.0 35 55
+ 0.040048 3 2 ack 40 ------- 0 3.0 0.0 29 82
- 0.040048 3 2 ack 40 ------- 0 3.0 0.0 29 82
r 0.040248 3 2 ack 40 ------- 0 3.0 0.0 29 80
+ 0.040248 2 0 ack 40 ------- 0 3.0 0.0 29 80
- 0.040248 2 0 ack 40 ------- 0 3.0 0.0 29 80
r 0.040448 2 0 ack 40 ------- 0 3.0 0.0 29 78
- 0.040544 0 2 tcp 1040 ------- 0 0.0 3.0 42 67
r 0.040712 0 2 tcp 1040 ------- 0 0.0 3.0 40 63
+ 0.040712 2 3 tcp 1040 ------- 0 0.0 3.0 40 63
- 0.040712 2 3 tcp 1040 ------- 0 0.0 3.0 40 63
r 0.04088 2 3 tcp 1040 ------- 0 0.0 3.0 37 58
+ 0.04088 3 2 ack 40 ------- 0 3.0 0.0 29 83
- 0.04088 3 2 ack 40 ------- 0 3.0 0.0 29 83
r 0.04108 3 2 ack 40 ------- 0 3.0 0.0 29 82
+ 0.04108 2 0 ack 40 ------- 0 3.0 0.0 29 82
- 0.04108 2 0 ack 40 ------- 0 3.0 0.0 29 82
r 0.04128 2 0 ack 40 ------- 0 3.0 0.0 29 80
- 0.041376 0 2 tcp 1040 ------- 0 0.0 3.0 43 69
r 0.041544 0 2 tcp 1040 ------- 0 0.0 3.0 41 65
+ 0.041544 2 3 tcp 1040 ------- 0 0.0 3.0 41 65
- 0.041544 2 3 tcp 1040 ------- 0 0.0 3.0 41 65
r 0.041712 2 3 tcp 1040 ------- 0 0.0 3.0 39 61
+ 0.041712 3 2 ack 40 ------- 0 3.0 0.0 29 84
- 0.041712 3 2 ack 40 ------- 0 3.0 0.0 29 84
r 0.041912 3 2 ack 40 ------- 0 3.0 0.0 29 83
+ 0.041912 2 0 ack 40 ------- 0 3.0 0.0 29 83
- 0.041912 2 0 ack 40 ------- 0 3.0 0.0 29 83
r 0.042112 2 0 ack 40 ------- 0 3.0 0.0 29 82
+ 0.042112 0 2 tcp 1040 ---A--- 0 0.0 3.0 30 85
- 0.042208 0 2 tcp 1040 ------- 0 0.0 3.0 44 71
r 0.042376 0 2 tcp 1040 ------- 0 0.0 3.0 42 67
+ 0.042376 2 3 tcp 1040 ------- 0 0.0 3.0 42 67
- 0.042376 2 3 tcp 1040 ------- 0 0.0 3.0 42 67
r 0.042544 2 3 tcp 1040 ------- 0 0.0 3.0 40 63
+ 0.042544 3 2 ack 40 ------- 0 3.0 0.0 29 86
- 0.042544 3 2 ack 40 ------- 0 3.0 0.0 29 86
r 0.042744 3 2 ack 40 ------- 0 3.0 0.0 29 84
+ 0.042744 2 0 ack 40 ------- 0 3.0 0.0 29 84
- 0.042744 2 0 ack 40 ------- 0 3.0 0.0 29 84
r 0.042944 2 0 ack 40 ------- 0 3.0 0.0 29 83
- 0.04304 0 2 tcp 1040 ------- 0 0.0 3.0 45 73
r 0.043208 0 2 tcp 1040 ------- 0 0.0 3.0 43 69
+ 0.043208 2 3 tcp 1040 ------- 0 0.0 3.0 43 69
- 0.043208 2 3 tcp 1040 ------- 0 0.0 3.0 43 69
r 0.043376 2 3 tcp 1040 ------- 0 0.0 3.0 41 65
+ 0.043376 3 2 ack 40 ------- 0 3.0 0.0 29 87
- 0.043376 3 2 ack 40 ------- 0 3.0 0.0 29 87
r 0.043576 3 2 ack 40 ------- 0 3.0 0.0 29 86
+ 0.043576 2 0 ack 40 ------- 0 3.0 0.0 29 86
- 0.043576 2 0 ack 40 ------- 0 3.0 0.0 29 86
r 0.043776 2 0 ack 40 ------- 0 3.0 0.0 29 84
- 0.043872 0 2 tcp 1040 ------- 0 0.0 3.0 46 75
r 0.04404 0 2 tcp 1040 ------- 0 0.0 3.0 44 71
+ 0.04404 2 3 tcp 1040 ------- 0 0.0 3.0 44 71
- 0.04404 2 3 tcp 1040 ------- 0 0.0 3.0 44 71
r 0.044208 2 3 tcp 1040 ------- 0 0.0 3.0 42 67
+ 0.044208 3 2 ack 40 ------- 0 3.0 0.0 29 88
- 0.044208 3 2 ack 40 ------- 0 3.0 0.0 29 88
r 0.044408 3 2 ack 40 ------- 0 3.0 0.0 29 87
+ 0.044408 2 0 ack 40 ------- 0 3.0 0.0 29 87
- 0.044408 2 0 ack 40 ------- 0 3.0 0.0 29 87
r 0.044608 2 0 ack 40 ------- 0 3.0 0.0 29 86
- 0.044704 0 2 tcp 1040 ------- 0 0.0 3.0 47 77
r 0.044872 0 2 tcp 1040 ------- 0 0.0 3.0 45 73
+ 0.044872 2 3 tcp 1040 ------- 0 0.0 3.0 45 73
- 0.044872 2 3 tcp 1040 ------- 0 0.0 3.0 45 73
r 0.04504 2 3 tcp 1040 ------- 0 0.0 3.0 43 69
+ 0.04504 3 2 ack 40 ------- 0 3.0 0.0 29 89
- 0.04504 3 2 ack 40 ------- 0 3.0 0.0 29 89
r 0.04524 3 2 ack 40 ------- 0 3.0 0.0 29 88
+ 0.04524 2 0 ack 40 ------- 0 3.0 0.0 29 88
- 0.04524 2 0 ack 40 ------- 0 3.0 0.0 29 88
r 0.04544 2 0 ack 40 ------- 0 3.0 0.0 29 87
- 0.045536 0 2 tcp 1040 ------- 0 0.0 3.0 48 79
r 0.045704 0 2 tcp 1040 ------- 0 0.0 3.0 46 75
+ 0.045704 2 3 tcp 1040 ------- 0 0.0 3.0 46 75
- 0.045704 2 3 tcp 1040 ------- 0 0.0 3.0 46 75
r 0.045872 2 3 tcp 1040 ------- 0 0.0 3.0 44 71
+ 0.045872 3 2 ack 40 ------- 0 3.0 0.0 29 90
- 0.045872 3 2 ack 40 ------- 0 3.0 0.0 29 90
r 0.046072 3 2 ack 40 ------- 0 3.0 0.0 29 89
+ 0.046072 2 0 ack 40 ------- 0 3.0 0.0 29 89
- 0.046072 2 0 ack 40 ------- 0 3.0 0.0 29 89
r 0.046272 2 0 ack 40 ------- 0 3.0 0.0 29 88
- 0.046368 0 2 tcp 1040 ------- 0 0.0 3.0 49 81
r 0.046536 0 2 tcp 1040 ------- 0 0.0 3.0 47 77
+ 0.046536 2 3 tcp 1040 ------- 0 0.0 3.0 47 77
- 0.046536 2 3 tcp 1040 ------- 0 0.0 3.0 47 77
r 0.046704 2 3 tcp 1040 ------- 0 0.0 3.0 45 73
+ 0.046704 3 2 ack 40 ------- 0 3.0 0.0 29 91
- 0.046704 3 2 ack 40 ------- 0 3.0 0.0 29 91
r 0.046904 3 2 ack 40 ------- 0 3.0 0.0 29 90
+ 0.046904 2 0 ack 40 ------- 0 3.0 0.0 29 90
- 0.046904 2 0 ack 40 ------- 0 3.0 0.0 29 90
r 0.047104 2 0 ack 40 ------- 0 3.0 0.0 29 89
- 0.0472 0 2 tcp 1040 ---A--- 0 0.0 3.0 30 85
r 0.047368 0 2 tcp 1040 ------- 0 0.0 3.0 48 79
+ 0.047368 2 3 tcp 1040 ------- 0 0.0 3.0 48 79
- 0.047368 2 3 tcp 1040 ------- 0 0.0 3.0 48 79
r 0.047536 2 3 tcp 1040 ------- 0 0.0 3.0 46 75
+ 0.047536 3 2 ack 40 ------- 0 3.0 0.0 29 92
- 0.047536 3 2 ack 40 ------- 0 3.0 0.0 29 92
r 0.047736 3 2 ack 40 ------- 0 3.0 0.0 29 91
+ 0.047736 2 0 ack 40 ------- 0 3.0 0.0 29 91
- 0.047736 2 0 ack 40 ------- 0 3.0 0.0 29 91
r 0.047936 2 0 ack 40 ------- 0 3.0 0.0 29 90
r 0.0482 0 2 tcp 1040 ------- 0 0.0 3.0 49 81
+ 0.0482 2 3 tcp 1040 ------- 0 0.0 3.0 49 81
- 0.0482 2 3 tcp 1040 ------- 0 0.0 3.0 49 81
r 0.048368 2 3 tcp 1040 ------- 0 0.0 3.0 47 77
+ 0.048368 3 2 ack 40 ------- 0 3.0 0.0 29 93
- 0.048368 3 2 ack 40 ------- 0 3.0 0.0 29 93
r 0.048568 3 2 ack 40 ------- 0 3.0 0.0 29 92
+ 0.048568 2 0 ack 40 ------- 0 3.0 0.0 29 92
- 0.048568 2 0 ack 40 ------- 0 3.0 0.0 29 92
r 0.048768 2 0 ack 40 ------- 0 3.0 0.0 29 91
r 0.049032 0 2 tcp 1040 ---A--- 0 0.0 3.0 30 85
+ 0.049032 2 3 tcp 1040 ---A--- 0 0.0 3.0 30 85
- 0.049032 2 3 tcp 1040 ---A--- 0 0.0 3.0 30 85
r 0.0492 2 3 tcp 1040 ------- 0 0.0 3.0 48 79
+ 0.0492 3 2 ack 40 ------- 0 3.0 0.0 29 94
- 0.0492 3 2 ack 40 ------- 0 3.0 0.0 29 94
r 0.0494 3 2 ack 40 ------- 0 3.0 0.0 29 93
+ 0.0494 2 0 ack 40 ------- 0 3.0 0.0 29 93
- 0.0494 2 0 ack 40 ------- 0 3.0 0.0 29 93
r 0.0496 2 0 ack 40 ------- 0 3.0 0.0 29 92
r 0.050032 2 3 tcp 1040 ------- 0 0.0 3.0 49 81
+ 0.050032 3 2 ack 40 ------- 0 3.0 0.0 29 95
- 0.050032 3 2 ack 40 ------- 0 3.0 0.0 29 95
r 0.050232 3 2 ack 40 ------- 0 3.0 0.0 29 94
+ 0.050232 2 0 ack 40 ------- 0 3.0 0.0 29 94
- 0.050232 2 0 ack 40 ------- 0 3.0 0.0 29 94
r 0.050432 2 0 ack 40 ------- 0 3.0 0.0 29 93
r 0.050864 2 3 tcp 1040 ---A--- 0 0.0 3.0 30 85
+ 0.050864 3 2 ack 40 ------- 0 3.0 0.0 31 96
- 0.050864 3 2 ack 40 ------- 0 3.0 0.0 31 96
r 0.051064 3 2 ack 40 ------- 0 3.0 0.0 29 95
+ 0.051064 2 0 ack 40 ------- 0 3.0 0.0 29 95
- 0.051064 2 0 ack 40 ------- 0 3.0 0.0 29 95
r 0.051264 2 0 ack 40 ------- 0 3.0 0.0 29 94
r 0.051896 3 2 ack 40 ------- 0 3.0 0.0 31 96
+ 0.051896 2 0 ack 40 ------- 0 3.0 0.0 31 96
- 0.051896 2 0 ack 40 ------- 0 3.0 0.0 31 96
r 0.052096 2 0 ack 40 ------- 0 3.0 0.0 29 95
r 0.052928 2 0 ack 40 ------- 0 3.0 0.0 31 96
+ 0.052928 0 2 tcp 1040 ------- 0 0.0 3.0 32 97
- 0.052928 0 2 tcp 1040 ------- 0 0.0 3.0 32 97
+ 0.052928 0 2 tcp 1040 ------- 0 0.0 3.0 33 98
- 0.05376 0 2 tcp 1040 ------- 0 0.0 3.0 33 98
r 0.05476 0 2 tcp 1040 ------- 0 0.0 3.0 32 97
+ 0.05476 2 3 tcp 1040 ------- 0 0.0 3.0 32 97
- 0.05476 2 3 tcp 1040 ------- 0 0.0 3.0 32 97
r 0.055592 0 2 tcp 1040 ------- 0 0.0 3.0 33 98
+ 0.055592 2 3 tcp 1040 ------- 0 0.0 3.0 33 98
- 0.055592 2 3 tcp 1040 ------- 0 0.0 3.0 33 98
r 0.056592 2 3 tcp 1040 ------- 0 0.0 3.0 32 97
+ 0.056592 3 2 ack 40 ------- 0 3.0 0.0 33 99
- 0.056592 3 2 ack 40 ------- 0 3.0 0.0 33 99
r 0.057424 2 3 tcp 1040 ------- 0 0.0 3.0 33 98
+ 0.057424 3 2 ack 40 ------- 0 3.0 0.0 33 100
- 0.057424 3 2 ack 40 ------- 0 3.0 0.0 33 100
r 0.057624 3 2 ack 40 ------- 0 3.0 0.0 33 99
+ 0.057624 2 0 ack 40 ------- 0 3.0 0.0 33 99
- 0.057624 2 0 ack 40 ------- 0 3.0 0.0 33 99
r 0.058456 3 2 ack 40 ------- 0 3.0 0.0 33 100
+ 0.058456 2 0 ack 40 ------- 0 3.0 0.0 33 100
- 0.058456 2 0 ack 40 ------- 0 3.0 0.0 33 100
r 0.058656 2 0 ack 40 ------- 0 3.0 0.0 33 99
+ 0.058656 0 2 tcp 1040 ------- 0 0.0 3.0 34 101
- 0.058656 0 2 tcp 1040 ------- 0 0.0 3.0 34 101
+ 0.058656 0 2 tcp 1040 ------- 0 0.0 3.0 35 102
+ 0.058656 0 2 tcp 1040 ------- 0 0.0 3.0 36 103
r 0.059488 2 0 ack 40 ------- 0 3.0 0.0 33 100
+ 0.059488 0 2 tcp 1040 ------- 0 0.0 3.0 37 104
- 0.059488 0 2 tcp 1040 ------- 0 0.0 3.0 35 102
- 0.06032 0 2 tcp 1040 ------- 0 0.0 3.0 36 103
r 0.060488 0 2 tcp 1040 ------- 0 0.0 3.0 34 101
+ 0.060488 2 3 tcp 1040 ------- 0 0.0 3.0 34 101
- 0.060488 2 3 tcp 1040 ------- 0 0.0 3.0 34 101
- 0.061152 0 2 tcp 1040 ------- 0 0.0 3.0 37 104
r 0.06132 0 2 tcp 1040 ------- 0 0.0 3.0 35 102
+ 0.06132 2 3 tcp 1040 ------- 0 0.0 3.0 35 102
- 0.06132 2 3 tcp 1040 ------- 0 0.0 3.0 35 102
r 0.062152 0 2 tcp 1040 ------- 0 0.0 3.0 36 103
+ 0.062152 2 3 tcp 1040 ------- 0 0.0 3.0 36 103
- 0.062152 2 3 tcp 1040 ------- 0 0.0 3.0 36 103
r 0.06232 2 3 tcp 1040 ------- 0 0.0 3.0 34 101
+ 0.06232 3 2 ack 40 ------- 0 3.0 0.0 35 105
- 0.06232 3 2 ack 40 ------- 0 3.0 0.0 35 105
r 0.062984 0 2 tcp 1040 ------- 0 0.0 3.0 37 104
+ 0.062984 2 3 tcp 1040 ------- 0 0.0 3.0 37 104
- 0.062984 2 3 tcp 1040 ------- 0 0.0 3.0 37 104
r 0.063152 2 3 tcp 1040 ------- 0 0.0 3.0 35 102
+ 0.063152 3 2 ack 40 ------- 0 3.0 0.0 35 106
- 0.063152 3 2 ack 40 ------- 0 3.0 0.0 35 106
r 0.063352 3 2 ack 40 ------- 0 3.0 0.0 35 105
+ 0.063352 2 0 ack 40 ------- 0 3.0 0.0 35 105
- 0.063352 2 0 ack 40 ------- 0 3.0 0.0 35 105
r 0.063984 2 3 tcp 1040 ------- 0 0.0 3.0 36 103
+ 0.063984 3 2 ack 40 ------- 0 3.0 0.0 37 107
- 0.063984 3 2 ack 40 ------- 0 3.0 0.0 37 107
r 0.064184 3 2 ack 40 ------- 0 3.0 0.0 35 106
+ 0.064184 2 0 ack 40 ------- 0 3.0 0.0 35 106
- 0.064184 2 0 ack 40 ------- 0 3.0 0.0 35 106
r 0.064384 2 0 ack 40 ------- 0 3.0 0.0 35 105
+ 0.064384 0 2 tcp 1040 ------- 0 0.0 3.0 38 108
- 0.064384 0 2 tcp 1040 ------- 0 0.0 3.0 38 108
+ 0.064384 0 2 tcp 1040 ------- 0 0.0 3.0 39 109
r 0.064816 2 3 tcp 1040 ------- 0 0.0 3.0 37 104
+ 0.064816 3 2 ack 40 ------- 0 3.0 0.0 37 110
- 0.064816 3 2 ack 40 ------- 0 3.0 0.0 37 110
r 0.065016 3 2 ack 40 ------- 0 3.0 0.0 37 107
+ 0.065016 2 0 ack 40 ------- 0 3.0 0.0 37 107
- 0.065016 2 0 ack 40 ------- 0 3.0 0.0 37 107
r 0.065216 2 0 ack 40 ------- 0 3.0 0.0 35 106
+ 0.065216 0 2 tcp 1040 ------- 0 0.0 3.0 40 111
- 0.065216 0 2 tcp 1040 ------- 0 0.0 3.0 39 109
r 0.065848 3 2 ack 40 ------- 0 3.0 0.0 37 110
+ 0.065848 2 0 ack 40 ------- 0 3.0 0.0 37 110
- 0.065848 2 0 ack 40 ------- 0 3.0 0.0 37 110
r 0.066048 2 0 ack 40 ------- 0 3.0 0.0 37 107
+ 0.066048 0 2 tcp 1040 ------- 0 0.0 3.0 41 112
+ 0.066048 0 2 tcp 1040 ------- 0 0.0 3.0 42 113
- 0.066048 0 2 tcp 1040 ------- 0 0.0 3.0 40 111
r 0.066216 0 2 tcp 1040 ------- 0 0.0 3.0 38 108
+ 0.066216 2 3 tcp 1040 ------- 0 0.0 3.0 38 108